<?xml version="1.0" encoding="ISO-8859-1"?>
<modeling>
 <generator>
  <i name="program" type="string">vasp </i>
  <i name="version" type="string">5.4.4.18Apr17-6-g9f103f2a35  </i>
  <i name="subversion" type="string">(build Sep 16 2020 16:27:35) complex            parallel </i>
  <i name="platform" type="string">LinuxIFC </i>
  <i name="date" type="string">2023 03 28 </i>
  <i name="time" type="string">11:31:36 </i>
 </generator>
 <incar>
  <i type="int" name="ISTART">     0</i>
  <i type="string" name="PREC">accurate</i>
  <i type="int" name="IALGO">    48</i>
  <i type="int" name="NELM">   200</i>
  <i name="EDIFF">      0.00001000</i>
  <i name="EDIFFG">     -0.01000000</i>
  <i type="int" name="NSW">     0</i>
  <i type="int" name="ISYM">     2</i>
  <i name="ENCUT">    350.00000000</i>
  <i type="string" name="LREAL"> Auto</i>
  <i type="int" name="ISMEAR">    -5</i>
  <i type="logical" name="LCHARG"> T  </i>
  <i type="logical" name="LAECHG"> T  </i>
  <v type="int" name="KPOINT_BSE">    -1     0     0     0</v>
  <i type="int" name="NELM">   200</i>
 </incar>
 <structure name="primitive_cell" >
  <crystal>
   <varray name="basis" >
    <v>      29.77370000       0.00000000       0.00000000 </v>
    <v>      -0.00781907      30.06709898       0.00000000 </v>
    <v>       0.09095107      -0.20317131      29.54066133 </v>
   </varray>
   <i name="volume">  26445.05953440 </i>
   <varray name="rec_basis" >
    <v>       0.03358669       0.00000873      -0.00010335 </v>
    <v>       0.00000000       0.03325895       0.00022874 </v>
    <v>       0.00000000       0.00000000       0.03385165 </v>
   </varray>
  </crystal>
  <varray name="positions" >
   <v>       0.12984000      -0.39692000       0.23096000 </v>
   <v>       0.14534000      -0.37136000       0.21034000 </v>
   <v>       0.19186000      -0.36990000       0.20660000 </v>
   <v>       0.11903000      -0.33956000       0.18812000 </v>
   <v>       0.06702000      -0.41565000       0.18509000 </v>
   <v>       0.21178000      -0.39415000       0.22501000 </v>
   <v>       0.13106000      -0.38492000       0.32168000 </v>
   <v>       0.07072000      -0.33938000       0.19412000 </v>
   <v>       0.04718000      -0.38043000       0.19307000 </v>
   <v>       0.13104000      -0.43256000       0.32087000 </v>
   <v>       0.08938000      -0.36111000       0.32132000 </v>
   <v>       0.17275000      -0.36111000       0.32085000 </v>
   <v>       0.08938000      -0.45635000       0.31954000 </v>
   <v>       0.21339000      -0.33696000       0.18065000 </v>
   <v>       0.13980000      -0.30782000       0.16021000 </v>
   <v>       0.17272000      -0.45636000       0.32020000 </v>
   <v>       0.04770000      -0.38493000       0.32105000 </v>
   <v>       0.21442000      -0.38493000       0.31988000 </v>
   <v>       0.04771000      -0.43255000       0.31986000 </v>
   <v>       0.21440000      -0.43256000       0.31997000 </v>
   <v>       0.08938000      -0.31351000       0.32031000 </v>
   <v>       0.17272000      -0.31353000       0.31908000 </v>
   <v>       0.18646000      -0.30660000       0.15669000 </v>
   <v>       0.04931000      -0.29797000       0.20274000 </v>
   <v>      -0.00237000      -0.37927000       0.20034000 </v>
   <v>       0.13105000      -0.28974000       0.31882000 </v>
   <v>       0.23086000      -0.41836000       0.13661000 </v>
   <v>       0.08939000       0.49604000       0.31774000 </v>
   <v>       0.11985000      -0.28410000       0.14117000 </v>
   <v>       0.17272000       0.49601000       0.31905000 </v>
   <v>       0.07169000      -0.26391000       0.20880000 </v>
   <v>      -0.00867000      -0.45053000       0.20086000 </v>
   <v>       0.26350000      -0.33552000       0.17925000 </v>
   <v>       0.00602000      -0.36112000       0.32164000 </v>
   <v>       0.25606000      -0.36118000       0.31756000 </v>
   <v>       0.26455000      -0.41594000       0.15045000 </v>
   <v>       0.13105000       0.47222000       0.31769000 </v>
   <v>      -0.02659000      -0.41894000       0.20215000 </v>
   <v>       0.21438000      -0.28978000       0.31730000 </v>
   <v>       0.04771000      -0.28971000       0.32033000 </v>
   <v>       0.00603000      -0.45633000       0.31873000 </v>
   <v>       0.25606000      -0.45637000       0.31916000 </v>
   <v>       0.20200000      -0.28202000       0.13463000 </v>
   <v>      -0.00075000      -0.29732000       0.20389000 </v>
   <v>       0.28615000      -0.37631000       0.16970000 </v>
   <v>      -0.02569000      -0.33787000       0.20309000 </v>
   <v>       0.25605000      -0.31358000       0.31664000 </v>
   <v>       0.00604000      -0.31350000       0.32167000 </v>
   <v>       0.04773000       0.47225000       0.31609000 </v>
   <v>       0.13103000      -0.24218000       0.31687000 </v>
   <v>       0.21438000       0.47220000       0.31924000 </v>
   <v>       0.22969000      -0.24852000       0.21396000 </v>
   <v>       0.00605000       0.49606000       0.31659000 </v>
   <v>      -0.03565000      -0.38493000       0.32170000 </v>
   <v>       0.29771000      -0.38499000       0.31639000 </v>
   <v>       0.25605000       0.49601000       0.31980000 </v>
   <v>       0.29558000      -0.44900000       0.15131000 </v>
   <v>      -0.03564000      -0.43254000       0.31994000 </v>
   <v>       0.28470000      -0.29409000       0.18887000 </v>
   <v>       0.29772000      -0.43259000       0.31772000 </v>
   <v>       0.04771000      -0.24214000       0.31847000 </v>
   <v>       0.21437000      -0.24218000       0.31621000 </v>
   <v>       0.13107000       0.42459000       0.31617000 </v>
   <v>       0.26438000      -0.25307000       0.20361000 </v>
   <v>       0.08937000      -0.21840000       0.31653000 </v>
   <v>       0.17270000      -0.21840000       0.31570000 </v>
   <v>       0.29123000      -0.48263000       0.13837000 </v>
   <v>      -0.07351000      -0.41844000       0.20531000 </v>
   <v>       0.33007000      -0.38533000       0.17972000 </v>
   <v>      -0.02356000      -0.25687000       0.20648000 </v>
   <v>      -0.07376000      -0.33705000       0.20512000 </v>
   <v>       0.04774000       0.42462000       0.31429000 </v>
   <v>       0.31471000       0.49449000       0.22443000 </v>
   <v>       0.29772000      -0.28980000       0.31539000 </v>
   <v>      -0.03564000      -0.28970000       0.32205000 </v>
   <v>       0.33636000      -0.42974000       0.17086000 </v>
   <v>       0.21439000       0.42457000       0.31849000 </v>
   <v>      -0.00448000      -0.22595000       0.20783000 </v>
   <v>       0.08942000       0.40080000       0.31438000 </v>
   <v>       0.17274000       0.40077000       0.31666000 </v>
   <v>      -0.03562000       0.47226000       0.31518000 </v>
   <v>      -0.09073000      -0.45036000       0.20688000 </v>
   <v>       0.33936000      -0.36121000       0.31482000 </v>
   <v>      -0.07732000      -0.36113000       0.32280000 </v>
   <v>      -0.09792000      -0.37844000       0.20578000 </v>
   <v>       0.29771000       0.47221000       0.32051000 </v>
   <v>      -0.07732000      -0.45634000       0.31891000 </v>
   <v>       0.32949000      -0.28495000       0.18208000 </v>
   <v>       0.00604000      -0.21835000       0.31821000 </v>
   <v>       0.33937000      -0.45639000       0.31779000 </v>
   <v>       0.25605000      -0.21837000       0.31586000 </v>
   <v>       0.33937000      -0.31359000       0.31448000 </v>
   <v>      -0.07731000      -0.31350000       0.32304000 </v>
   <v>      -0.03563000      -0.24210000       0.32032000 </v>
   <v>       0.29772000      -0.24218000       0.31577000 </v>
   <v>       0.08938000      -0.17082000       0.31456000 </v>
   <v>       0.29694000      -0.22060000       0.20370000 </v>
   <v>       0.17272000      -0.17080000       0.31436000 </v>
   <v>      -0.07056000      -0.25573000       0.20737000 </v>
   <v>       0.35264000      -0.30756000       0.17108000 </v>
   <v>       0.34010000       0.47491000       0.20663000 </v>
   <v>      -0.07730000       0.49607000       0.31623000 </v>
   <v>      -0.09640000      -0.29485000       0.20651000 </v>
   <v>       0.33939000       0.49602000       0.31971000 </v>
   <v>       0.00608000       0.40082000       0.31275000 </v>
   <v>       0.25604000       0.40076000       0.31936000 </v>
   <v>       0.37628000      -0.45380000       0.18089000 </v>
   <v>      -0.03560000       0.42464000       0.31311000 </v>
   <v>       0.29769000       0.42458000       0.32082000 </v>
   <v>       0.31224000       0.41350000       0.22994000 </v>
   <v>       0.13105000      -0.14701000       0.31360000 </v>
   <v>      -0.11900000      -0.38495000       0.32254000 </v>
   <v>       0.33843000      -0.24049000       0.18903000 </v>
   <v>       0.38103000      -0.38501000       0.31499000 </v>
   <v>      -0.11899000      -0.43256000       0.32039000 </v>
   <v>       0.38102000      -0.43260000       0.31644000 </v>
   <v>       0.29219000      -0.18627000       0.21420000 </v>
   <v>       0.08943000       0.35316000       0.31298000 </v>
   <v>       0.17276000       0.35314000       0.31542000 </v>
   <v>       0.37421000       0.49651000       0.18188000 </v>
   <v>       0.00603000      -0.17080000       0.31564000 </v>
   <v>       0.25605000      -0.17076000       0.31525000 </v>
   <v>       0.33879000       0.42877000       0.21011000 </v>
   <v>       0.04771000      -0.14702000       0.31400000 </v>
   <v>       0.21440000      -0.14697000       0.31431000 </v>
   <v>      -0.14729000      -0.37758000       0.20645000 </v>
   <v>      -0.08667000      -0.22325000       0.20923000 </v>
   <v>       0.40401000      -0.36621000       0.17154000 </v>
   <v>       0.38104000      -0.28978000       0.31448000 </v>
   <v>      -0.11899000      -0.28970000       0.32292000 </v>
   <v>      -0.07731000      -0.21832000       0.31953000 </v>
   <v>       0.33938000      -0.21836000       0.31585000 </v>
   <v>       0.13111000       0.32934000       0.31353000 </v>
   <v>       0.00609000       0.35318000       0.31125000 </v>
   <v>      -0.15704000      -0.44918000       0.20850000 </v>
   <v>       0.41817000      -0.43280000       0.19024000 </v>
   <v>      -0.11897000       0.47226000       0.31487000 </v>
   <v>      -0.14576000      -0.29399000       0.20643000 </v>
   <v>       0.25605000       0.35313000       0.31831000 </v>
   <v>       0.38104000       0.47220000       0.31930000 </v>
   <v>       0.04777000       0.32935000       0.31140000 </v>
   <v>       0.42710000      -0.38850000       0.18287000 </v>
   <v>       0.21442000       0.32933000       0.31633000 </v>
   <v>      -0.07728000       0.40082000       0.31185000 </v>
   <v>      -0.17314000      -0.41669000       0.20723000 </v>
   <v>      -0.16067000      -0.36115000       0.32326000 </v>
   <v>       0.33939000       0.40076000       0.32082000 </v>
   <v>      -0.11899000      -0.24211000       0.32108000 </v>
   <v>       0.42269000      -0.36119000       0.31506000 </v>
   <v>      -0.16993000      -0.33538000       0.20570000 </v>
   <v>       0.38103000      -0.24216000       0.31554000 </v>
   <v>       0.29558000       0.34934000       0.18629000 </v>
   <v>      -0.16066000      -0.45636000       0.31910000 </v>
   <v>       0.13107000      -0.09939000       0.31247000 </v>
   <v>       0.42267000      -0.45639000       0.31704000 </v>
   <v>       0.38042000      -0.21976000       0.17958000 </v>
   <v>      -0.03564000      -0.14700000       0.31492000 </v>
   <v>       0.29771000      -0.14693000       0.31592000 </v>
   <v>       0.40563000       0.46969000       0.15843000 </v>
   <v>      -0.16067000      -0.31352000       0.32339000 </v>
   <v>       0.42270000      -0.31357000       0.31490000 </v>
   <v>      -0.11896000       0.42464000       0.31259000 </v>
   <v>       0.37182000       0.40260000       0.18868000 </v>
   <v>      -0.07732000      -0.17078000       0.31668000 </v>
   <v>       0.42648000      -0.28832000       0.17888000 </v>
   <v>       0.33936000      -0.17074000       0.31666000 </v>
   <v>       0.04772000      -0.09942000       0.31224000 </v>
   <v>      -0.16065000       0.49606000       0.31615000 </v>
   <v>       0.38105000       0.42457000       0.31995000 </v>
   <v>       0.21442000      -0.09934000       0.31383000 </v>
   <v>       0.42267000       0.49599000       0.31779000 </v>
   <v>       0.32649000      -0.15851000       0.13569000 </v>
   <v>      -0.03559000       0.32936000       0.31004000 </v>
   <v>      -0.17016000      -0.25398000       0.20651000 </v>
   <v>      -0.15292000      -0.22206000       0.20814000 </v>
   <v>       0.42031000      -0.24412000       0.16959000 </v>
   <v>       0.13112000       0.28170000       0.31255000 </v>
   <v>       0.45958000      -0.45231000       0.20514000 </v>
   <v>       0.29770000       0.32932000       0.31916000 </v>
   <v>       0.40448000       0.42348000       0.16156000 </v>
   <v>      -0.07727000       0.35318000       0.31029000 </v>
   <v>       0.08940000      -0.07560000       0.31166000 </v>
   <v>       0.43106000       0.48500000       0.13693000 </v>
   <v>       0.17275000      -0.07556000       0.31275000 </v>
   <v>       0.33937000       0.35313000       0.32015000 </v>
   <v>       0.33159000       0.33037000       0.19326000 </v>
   <v>      -0.20234000      -0.38496000       0.32245000 </v>
   <v>       0.04777000       0.28171000       0.31037000 </v>
   <v>       0.47183000      -0.37917000       0.18958000 </v>
   <v>       0.38293000      -0.17007000       0.18063000 </v>
   <v>      -0.20234000      -0.43258000       0.32038000 </v>
   <v>       0.46434000      -0.38497000       0.31639000 </v>
   <v>       0.21443000       0.28170000       0.31557000 </v>
   <v>       0.46429000      -0.48637000       0.21603000 </v>
   <v>       0.35198000      -0.14322000       0.15718000 </v>
   <v>       0.46433000      -0.43258000       0.31695000 </v>
   <v>       0.37256000       0.35463000       0.19438000 </v>
   <v>      -0.22015000      -0.41553000       0.20697000 </v>
   <v>      -0.03564000      -0.09942000       0.31267000 </v>
   <v>      -0.16066000      -0.21833000       0.31994000 </v>
   <v>       0.29770000      -0.09930000       0.31620000 </v>
   <v>       0.42267000      -0.21835000       0.31702000 </v>
   <v>      -0.21800000      -0.33455000       0.20421000 </v>
   <v>       0.00605000      -0.07561000       0.31158000 </v>
   <v>       0.25607000      -0.07551000       0.31500000 </v>
   <v>       0.26190000       0.27334000       0.19981000 </v>
   <v>       0.08945000       0.25789000       0.31096000 </v>
   <v>       0.47049000      -0.29755000       0.16911000 </v>
   <v>      -0.20233000      -0.28972000       0.32273000 </v>
   <v>       0.17278000       0.25789000       0.31363000 </v>
   <v>       0.46434000      -0.28977000       0.31657000 </v>
   <v>      -0.11899000      -0.14699000       0.31566000 </v>
   <v>       0.49209000      -0.41981000       0.20478000 </v>
   <v>      -0.16064000       0.40082000       0.31155000 </v>
   <v>       0.38098000      -0.14692000       0.31828000 </v>
   <v>      -0.20232000       0.47226000       0.31470000 </v>
   <v>       0.42268000       0.40076000       0.31866000 </v>
   <v>       0.46432000       0.47218000       0.31694000 </v>
   <v>       0.42915000       0.40394000       0.14280000 </v>
   <v>       0.49308000      -0.33801000       0.17939000 </v>
   <v>      -0.03559000       0.28171000       0.30902000 </v>
   <v>      -0.23923000      -0.44643000       0.20828000 </v>
   <v>      -0.24296000      -0.37508000       0.20501000 </v>
   <v>       0.29770000       0.28170000       0.31882000 </v>
   <v>      -0.21709000      -0.25349000       0.20383000 </v>
   <v>      -0.20234000      -0.24212000       0.32112000 </v>
   <v>       0.00610000       0.25789000       0.30920000 </v>
   <v>      -0.16067000      -0.17078000       0.31725000 </v>
   <v>       0.46433000      -0.24215000       0.31745000 </v>
   <v>      -0.11895000       0.32936000       0.30944000 </v>
   <v>       0.25606000       0.25789000       0.31716000 </v>
   <v>       0.42263000      -0.17074000       0.31873000 </v>
   <v>       0.41715000      -0.14854000       0.20538000 </v>
   <v>       0.46123000      -0.22534000       0.14988000 </v>
   <v>       0.08942000      -0.02796000       0.31079000 </v>
   <v>       0.17276000      -0.02792000       0.31250000 </v>
   <v>       0.35367000      -0.09699000       0.16034000 </v>
   <v>       0.38104000       0.32933000       0.31991000 </v>
   <v>       0.33373000       0.28110000       0.19925000 </v>
   <v>      -0.24402000      -0.36117000       0.32253000 </v>
   <v>      -0.20232000       0.42464000       0.31245000 </v>
   <v>      -0.24133000      -0.29316000       0.20201000 </v>
   <v>      -0.49401000      -0.36116000       0.31757000 </v>
   <v>       0.29416000       0.25626000       0.20068000 </v>
   <v>      -0.24401000      -0.45635000       0.31850000 </v>
   <v>       0.44221000      -0.16816000       0.22318000 </v>
   <v>       0.32939000      -0.07739000       0.14156000 </v>
   <v>       0.46432000       0.42456000       0.31703000 </v>
   <v>      -0.49400000      -0.45638000       0.31694000 </v>
   <v>      -0.07731000      -0.07561000       0.31200000 </v>
   <v>      -0.16064000       0.35318000       0.31000000 </v>
   <v>      -0.24401000      -0.31353000       0.32272000 </v>
   <v>       0.41472000       0.33384000       0.20226000 </v>
   <v>      -0.49402000      -0.31355000       0.31822000 </v>
   <v>       0.33933000      -0.07549000       0.31788000 </v>
   <v>       0.49227000      -0.25841000       0.14946000 </v>
   <v>       0.42269000       0.35314000       0.31906000 </v>
   <v>      -0.24399000       0.49606000       0.31577000 </v>
   <v>      -0.11899000      -0.09941000       0.31329000 </v>
   <v>      -0.47330000      -0.42406000       0.21527000 </v>
   <v>       0.00606000      -0.02799000       0.31024000 </v>
   <v>      -0.49402000       0.49600000       0.31626000 </v>
   <v>       0.38095000      -0.09929000       0.31908000 </v>
   <v>       0.25606000      -0.02789000       0.31546000 </v>
   <v>       0.13110000      -0.00413000       0.31132000 </v>
   <v>       0.44877000       0.35639000       0.20859000 </v>
   <v>       0.46571000      -0.19201000       0.13662000 </v>
   <v>      -0.23500000      -0.22190000       0.20295000 </v>
   <v>       0.08946000       0.21024000       0.31037000 </v>
   <v>       0.17278000       0.21025000       0.31318000 </v>
   <v>       0.04774000      -0.00416000       0.30999000 </v>
   <v>       0.30971000      -0.02960000       0.20811000 </v>
   <v>      -0.07727000       0.25789000       0.30830000 </v>
   <v>       0.21442000      -0.00410000       0.31399000 </v>
   <v>       0.41900000      -0.10238000       0.20890000 </v>
   <v>       0.38640000      -0.07613000       0.18750000 </v>
   <v>      -0.11895000       0.28171000       0.30848000 </v>
   <v>       0.33935000       0.25789000       0.31990000 </v>
   <v>       0.38102000       0.28170000       0.32011000 </v>
   <v>      -0.45684000      -0.33636000       0.18120000 </v>
   <v>       0.00610000       0.21024000       0.30865000 </v>
   <v>      -0.24401000      -0.21835000       0.31995000 </v>
   <v>      -0.29301000      -0.37438000       0.20440000 </v>
   <v>      -0.28569000      -0.38497000       0.32124000 </v>
   <v>      -0.20234000      -0.14699000       0.31623000 </v>
   <v>       0.25605000       0.21025000       0.31707000 </v>
   <v>      -0.28568000      -0.43257000       0.31914000 </v>
   <v>      -0.49403000      -0.21835000       0.31904000 </v>
   <v>       0.37591000       0.25865000       0.20136000 </v>
   <v>      -0.45235000      -0.38495000       0.31831000 </v>
   <v>       0.46430000      -0.14691000       0.31962000 </v>
   <v>      -0.45233000      -0.43257000       0.31722000 </v>
   <v>       0.13112000       0.18643000       0.31145000 </v>
   <v>      -0.45627000      -0.27821000       0.22505000 </v>
   <v>       0.29552000       0.20977000       0.20306000 </v>
   <v>      -0.47390000      -0.25632000       0.13573000 </v>
   <v>       0.41631000       0.28418000       0.20245000 </v>
   <v>      -0.07731000      -0.02799000       0.31038000 </v>
   <v>      -0.24400000       0.40082000       0.31162000 </v>
   <v>      -0.29090000      -0.29201000       0.19515000 </v>
   <v>      -0.44451000      -0.39219000       0.13571000 </v>
   <v>       0.33931000      -0.02787000       0.31846000 </v>
   <v>       0.04778000       0.18642000       0.30920000 </v>
   <v>      -0.03562000      -0.00418000       0.30966000 </v>
   <v>       0.26359000       0.19215000       0.20445000 </v>
   <v>      -0.49404000       0.40075000       0.31563000 </v>
   <v>       0.21442000       0.18644000       0.31495000 </v>
   <v>      -0.28569000      -0.28973000       0.32221000 </v>
   <v>       0.29766000      -0.00406000       0.31745000 </v>
   <v>      -0.20232000       0.32935000       0.30951000 </v>
   <v>      -0.45240000      -0.28976000       0.32060000 </v>
   <v>      -0.16067000      -0.07561000       0.31263000 </v>
   <v>       0.46434000       0.32933000       0.31779000 </v>
   <v>      -0.28567000       0.47226000       0.31436000 </v>
   <v>       0.44560000      -0.08714000       0.22877000 </v>
   <v>      -0.43591000      -0.30276000       0.20708000 </v>
   <v>       0.42261000      -0.07546000       0.31997000 </v>
   <v>      -0.31540000      -0.40833000       0.21069000 </v>
   <v>      -0.24402000      -0.17077000       0.31770000 </v>
   <v>      -0.45235000       0.47220000       0.31518000 </v>
   <v>      -0.42942000      -0.36709000       0.15773000 </v>
   <v>      -0.49404000      -0.17072000       0.31933000 </v>
   <v>       0.34381000      -0.00716000       0.20169000 </v>
   <v>      -0.31443000      -0.33306000       0.19597000 </v>
   <v>       0.13111000       0.04351000       0.31114000 </v>
   <v>      -0.28569000      -0.24213000       0.32102000 </v>
   <v>       0.38592000      -0.02810000       0.19345000 </v>
   <v>      -0.07727000       0.21023000       0.30783000 </v>
   <v>      -0.45238000      -0.24213000       0.32037000 </v>
   <v>      -0.20235000      -0.09940000       0.31401000 </v>
   <v>      -0.24400000       0.35317000       0.31027000 </v>
   <v>       0.33934000       0.21026000       0.32012000 </v>
   <v>       0.46430000      -0.09928000       0.31992000 </v>
   <v>       0.04776000       0.04348000       0.30939000 </v>
   <v>      -0.03559000       0.18641000       0.30800000 </v>
   <v>       0.21441000       0.04354000       0.31434000 </v>
   <v>      -0.28567000       0.42463000       0.31252000 </v>
   <v>      -0.16064000       0.25788000       0.30817000 </v>
   <v>      -0.49404000       0.35313000       0.31582000 </v>
   <v>       0.29767000       0.18645000       0.31896000 </v>
   <v>      -0.45238000       0.42457000       0.31452000 </v>
   <v>       0.42268000       0.25789000       0.31979000 </v>
   <v>      -0.31072000      -0.25681000       0.18763000 </v>
   <v>      -0.32737000      -0.36117000       0.32136000 </v>
   <v>       0.37765000       0.21100000       0.20265000 </v>
   <v>       0.27020000       0.04506000       0.20602000 </v>
   <v>      -0.32734000      -0.45634000       0.31729000 </v>
   <v>      -0.41069000      -0.36117000       0.32006000 </v>
   <v>       0.33633000       0.18625000       0.20319000 </v>
   <v>      -0.20233000       0.28170000       0.30866000 </v>
   <v>      -0.41066000      -0.45635000       0.31666000 </v>
   <v>      -0.32737000      -0.31355000       0.32236000 </v>
   <v>      -0.11898000      -0.00418000       0.30993000 </v>
   <v>       0.46434000       0.28171000       0.31826000 </v>
   <v>      -0.41073000      -0.31357000       0.32174000 </v>
   <v>       0.45755000       0.26225000       0.20454000 </v>
   <v>       0.13112000       0.13878000       0.31122000 </v>
   <v>       0.08944000       0.06731000       0.30999000 </v>
   <v>      -0.32734000       0.49606000       0.31520000 </v>
   <v>       0.17277000       0.06734000       0.31262000 </v>
   <v>       0.38096000      -0.00404000       0.31928000 </v>
   <v>      -0.16067000      -0.02799000       0.31093000 </v>
   <v>      -0.41068000       0.49603000       0.31524000 </v>
   <v>      -0.03561000       0.04346000       0.30875000 </v>
   <v>       0.42263000      -0.02784000       0.31940000 </v>
   <v>       0.04777000       0.13877000       0.30902000 </v>
   <v>       0.29766000       0.04356000       0.31817000 </v>
   <v>       0.48844000       0.28166000       0.20611000 </v>
   <v>       0.21441000       0.13880000       0.31481000 </v>
   <v>       0.00608000       0.06729000       0.30870000 </v>
   <v>      -0.38947000      -0.30100000       0.21132000 </v>
   <v>       0.25602000       0.06736000       0.31659000 </v>
   <v>       0.34233000       0.04247000       0.20209000 </v>
   <v>      -0.38284000      -0.36552000       0.16169000 </v>
   <v>      -0.28569000      -0.14697000       0.31699000 </v>
   <v>      -0.11896000       0.18640000       0.30763000 </v>
   <v>      -0.45237000      -0.14691000       0.31904000 </v>
   <v>       0.30109000       0.06445000       0.20442000 </v>
   <v>       0.42697000      -0.00398000       0.19242000 </v>
   <v>      -0.16065000       0.21022000       0.30779000 </v>
   <v>      -0.36265000      -0.33313000       0.18960000 </v>
   <v>       0.38100000       0.18646000       0.32055000 </v>
   <v>      -0.32736000      -0.21833000       0.32051000 </v>
   <v>      -0.36248000      -0.38951000       0.14300000 </v>
   <v>       0.26599000       0.12633000       0.20641000 </v>
   <v>       0.08945000       0.11496000       0.30992000 </v>
   <v>      -0.24402000      -0.07559000       0.31352000 </v>
   <v>      -0.41070000      -0.21832000       0.32072000 </v>
   <v>       0.42267000       0.21027000       0.32001000 </v>
   <v>       0.17277000       0.11498000       0.31276000 </v>
   <v>      -0.03559000       0.13876000       0.30794000 </v>
   <v>      -0.49404000      -0.07548000       0.31868000 </v>
   <v>      -0.28569000       0.32934000       0.31016000 </v>
   <v>       0.46295000      -0.02315000       0.18536000 </v>
   <v>       0.29766000       0.13883000       0.31894000 </v>
   <v>      -0.36902000      -0.38496000       0.31983000 </v>
   <v>      -0.32735000       0.40080000       0.31207000 </v>
   <v>      -0.36900000      -0.43255000       0.31781000 </v>
   <v>      -0.45240000       0.32932000       0.31420000 </v>
   <v>       0.42065000       0.18928000       0.20353000 </v>
   <v>      -0.41071000       0.40077000       0.31330000 </v>
   <v>      -0.37446000      -0.27492000       0.23190000 </v>
   <v>       0.45961000       0.21570000       0.20463000 </v>
   <v>       0.00609000       0.11494000       0.30840000 </v>
   <v>      -0.11898000       0.04346000       0.30884000 </v>
   <v>       0.33809000       0.13733000       0.20358000 </v>
   <v>       0.25603000       0.11500000       0.31692000 </v>
   <v>      -0.24402000       0.25787000       0.30875000 </v>
   <v>      -0.07729000       0.06728000       0.30836000 </v>
   <v>       0.38097000       0.04359000       0.31963000 </v>
   <v>      -0.32736000      -0.17075000       0.31854000 </v>
   <v>      -0.36905000      -0.28974000       0.32261000 </v>
   <v>      -0.28570000      -0.09938000       0.31502000 </v>
   <v>      -0.49403000       0.25789000       0.31644000 </v>
   <v>      -0.41070000      -0.17072000       0.31931000 </v>
   <v>       0.33930000       0.06739000       0.31959000 </v>
   <v>      -0.45238000      -0.09929000       0.31813000 </v>
   <v>      -0.36901000       0.47224000       0.31433000 </v>
   <v>      -0.20235000      -0.00417000       0.31063000 </v>
   <v>       0.29909000       0.11098000       0.20473000 </v>
   <v>       0.46430000      -0.00404000       0.31843000 </v>
   <v>      -0.32737000       0.35316000       0.31110000 </v>
   <v>      -0.36903000      -0.24210000       0.32172000 </v>
   <v>      -0.41072000       0.35313000       0.31284000 </v>
   <v>      -0.28570000       0.28169000       0.30951000 </v>
   <v>      -0.24403000      -0.02797000       0.31186000 </v>
   <v>       0.38277000       0.06793000       0.20097000 </v>
   <v>      -0.45239000       0.28169000       0.31430000 </v>
   <v>      -0.49405000      -0.02786000       0.31768000 </v>
   <v>       0.42492000       0.04538000       0.19862000 </v>
   <v>      -0.11897000       0.13875000       0.30771000 </v>
   <v>      -0.36903000       0.42460000       0.31305000 </v>
   <v>       0.38099000       0.13883000       0.32044000 </v>
   <v>      -0.07728000       0.11493000       0.30786000 </v>
   <v>      -0.20234000       0.18640000       0.30800000 </v>
   <v>       0.33932000       0.11502000       0.32003000 </v>
   <v>       0.46433000       0.18645000       0.31860000 </v>
   <v>       0.49273000       0.20041000       0.20613000 </v>
   <v>      -0.24402000       0.21022000       0.30847000 </v>
   <v>       0.42242000       0.14033000       0.20293000 </v>
   <v>       0.38109000       0.11559000       0.20245000 </v>
   <v>      -0.49403000       0.21025000       0.31656000 </v>
   <v>      -0.16066000       0.06728000       0.30865000 </v>
   <v>       0.42264000       0.06740000       0.31934000 </v>
   <v>      -0.20235000       0.04346000       0.30946000 </v>
   <v>       0.46429000       0.04358000       0.31814000 </v>
   <v>      -0.36903000      -0.14694000       0.31815000 </v>
   <v>      -0.32737000      -0.07556000       0.31484000 </v>
   <v>      -0.41071000      -0.07551000       0.31659000 </v>
   <v>      -0.36905000       0.32933000       0.31158000 </v>
   <v>      -0.16066000       0.11492000       0.30803000 </v>
   <v>       0.46450000       0.07022000       0.20001000 </v>
   <v>      -0.28571000      -0.00415000       0.31182000 </v>
   <v>      -0.20234000       0.13874000       0.30816000 </v>
   <v>      -0.32739000       0.25787000       0.31009000 </v>
   <v>       0.42265000       0.11502000       0.31971000 </v>
   <v>      -0.45240000      -0.00408000       0.31592000 </v>
   <v>      -0.41074000       0.25787000       0.31257000 </v>
   <v>       0.46431000       0.13883000       0.31847000 </v>
   <v>       0.49675000       0.05310000       0.19895000 </v>
   <v>      -0.36904000      -0.09933000       0.31645000 </v>
   <v>       0.46319000       0.11674000       0.20256000 </v>
   <v>      -0.32738000      -0.02794000       0.31329000 </v>
   <v>      -0.28571000       0.18640000       0.30910000 </v>
   <v>      -0.41073000      -0.02790000       0.31527000 </v>
   <v>       0.49515000       0.13434000       0.20386000 </v>
   <v>      -0.45240000       0.18643000       0.31443000 </v>
   <v>      -0.36906000       0.28168000       0.31125000 </v>
   <v>      -0.24403000       0.06728000       0.30952000 </v>
   <v>      -0.49405000       0.06737000       0.31655000 </v>
   <v>      -0.32739000       0.21022000       0.30996000 </v>
   <v>      -0.41074000       0.21023000       0.31257000 </v>
   <v>      -0.28571000       0.04348000       0.31065000 </v>
   <v>      -0.45241000       0.04354000       0.31512000 </v>
   <v>      -0.24403000       0.11493000       0.30885000 </v>
   <v>      -0.49405000       0.11500000       0.31650000 </v>
   <v>      -0.28571000       0.13875000       0.30931000 </v>
   <v>      -0.45240000       0.13879000       0.31451000 </v>
   <v>      -0.36906000      -0.00412000       0.31358000 </v>
   <v>      -0.36907000       0.18641000       0.31112000 </v>
   <v>      -0.32739000       0.06730000       0.31105000 </v>
   <v>      -0.41074000       0.06733000       0.31337000 </v>
   <v>      -0.36907000       0.04351000       0.31251000 </v>
   <v>      -0.32740000       0.11494000       0.31040000 </v>
   <v>      -0.41074000       0.11497000       0.31289000 </v>
   <v>      -0.36907000       0.13877000       0.31133000 </v>
  </varray>
 </structure>
 <varray name="primitive_index" >
  <v type="int" >        1 </v>
  <v type="int" >      179 </v>
  <v type="int" >      180 </v>
  <v type="int" >      189 </v>
  <v type="int" >       47 </v>
  <v type="int" >       19 </v>
  <v type="int" >      392 </v>
  <v type="int" >       56 </v>
  <v type="int" >      192 </v>
  <v type="int" >      325 </v>
  <v type="int" >      338 </v>
  <v type="int" >      317 </v>
  <v type="int" >      149 </v>
  <v type="int" >      181 </v>
  <v type="int" >      183 </v>
  <v type="int" >      391 </v>
  <v type="int" >       83 </v>
  <v type="int" >      384 </v>
  <v type="int" >      469 </v>
  <v type="int" >      316 </v>
  <v type="int" >      154 </v>
  <v type="int" >      385 </v>
  <v type="int" >      182 </v>
  <v type="int" >      191 </v>
  <v type="int" >      178 </v>
  <v type="int" >      318 </v>
  <v type="int" >       17 </v>
  <v type="int" >      330 </v>
  <v type="int" >       26 </v>
  <v type="int" >      323 </v>
  <v type="int" >       46 </v>
  <v type="int" >       41 </v>
  <v type="int" >      215 </v>
  <v type="int" >      471 </v>
  <v type="int" >      341 </v>
  <v type="int" >      217 </v>
  <v type="int" >      397 </v>
  <v type="int" >      199 </v>
  <v type="int" >      354 </v>
  <v type="int" >      465 </v>
  <v type="int" >       88 </v>
  <v type="int" >      383 </v>
  <v type="int" >       24 </v>
  <v type="int" >      195 </v>
  <v type="int" >      216 </v>
  <v type="int" >      177 </v>
  <v type="int" >      376 </v>
  <v type="int" >       84 </v>
  <v type="int" >       87 </v>
  <v type="int" >      386 </v>
  <v type="int" >      390 </v>
  <v type="int" >       16 </v>
  <v type="int" >      478 </v>
  <v type="int" >       89 </v>
  <v type="int" >      375 </v>
  <v type="int" >      315 </v>
  <v type="int" >      218 </v>
  <v type="int" >      479 </v>
  <v type="int" >      224 </v>
  <v type="int" >      367 </v>
  <v type="int" >      201 </v>
  <v type="int" >      377 </v>
  <v type="int" >      329 </v>
  <v type="int" >      214 </v>
  <v type="int" >      319 </v>
  <v type="int" >      340 </v>
  <v type="int" >       18 </v>
  <v type="int" >      198 </v>
  <v type="int" >       58 </v>
  <v type="int" >      196 </v>
  <v type="int" >      165 </v>
  <v type="int" >      477 </v>
  <v type="int" >        9 </v>
  <v type="int" >      360 </v>
  <v type="int" >      475 </v>
  <v type="int" >      219 </v>
  <v type="int" >      322 </v>
  <v type="int" >       30 </v>
  <v type="int" >       86 </v>
  <v type="int" >      396 </v>
  <v type="int" >       95 </v>
  <v type="int" >       32 </v>
  <v type="int" >      359 </v>
  <v type="int" >      480 </v>
  <v type="int" >      175 </v>
  <v type="int" >      382 </v>
  <v type="int" >       96 </v>
  <v type="int" >       51 </v>
  <v type="int" >      466 </v>
  <v type="int" >      374 </v>
  <v type="int" >      361 </v>
  <v type="int" >      430 </v>
  <v type="int" >       90 </v>
  <v type="int" >       81 </v>
  <v type="int" >      402 </v>
  <v type="int" >      222 </v>
  <v type="int" >      212 </v>
  <v type="int" >      378 </v>
  <v type="int" >      197 </v>
  <v type="int" >       14 </v>
  <v type="int" >      248 </v>
  <v type="int" >      473 </v>
  <v type="int" >      163 </v>
  <v type="int" >      366 </v>
  <v type="int" >       94 </v>
  <v type="int" >      389 </v>
  <v type="int" >      221 </v>
  <v type="int" >      461 </v>
  <v type="int" >      314 </v>
  <v type="int" >        8 </v>
  <v type="int" >      324 </v>
  <v type="int" >       97 </v>
  <v type="int" >      211 </v>
  <v type="int" >      429 </v>
  <v type="int" >      460 </v>
  <v type="int" >      358 </v>
  <v type="int" >       15 </v>
  <v type="int" >      333 </v>
  <v type="int" >      328 </v>
  <v type="int" >      220 </v>
  <v type="int" >      152 </v>
  <v type="int" >      401 </v>
  <v type="int" >      247 </v>
  <v type="int" >      463 </v>
  <v type="int" >      362 </v>
  <v type="int" >      171 </v>
  <v type="int" >       31 </v>
  <v type="int" >       22 </v>
  <v type="int" >      350 </v>
  <v type="int" >      481 </v>
  <v type="int" >      476 </v>
  <v type="int" >      351 </v>
  <v type="int" >      432 </v>
  <v type="int" >      484 </v>
  <v type="int" >       42 </v>
  <v type="int" >      227 </v>
  <v type="int" >       92 </v>
  <v type="int" >      166 </v>
  <v type="int" >      321 </v>
  <v type="int" >      373 </v>
  <v type="int" >      103 </v>
  <v type="int" >       52 </v>
  <v type="int" >      395 </v>
  <v type="int" >       82 </v>
  <v type="int" >      170 </v>
  <v type="int" >      458 </v>
  <v type="int" >      381 </v>
  <v type="int" >       91 </v>
  <v type="int" >      349 </v>
  <v type="int" >      172 </v>
  <v type="int" >      421 </v>
  <v type="int" >       43 </v>
  <v type="int" >       80 </v>
  <v type="int" >      379 </v>
  <v type="int" >      428 </v>
  <v type="int" >      210 </v>
  <v type="int" >      468 </v>
  <v type="int" >      352 </v>
  <v type="int" >      244 </v>
  <v type="int" >       98 </v>
  <v type="int" >      420 </v>
  <v type="int" >      443 </v>
  <v type="int" >      246 </v>
  <v type="int" >      133 </v>
  <v type="int" >       53 </v>
  <v type="int" >      422 </v>
  <v type="int" >      223 </v>
  <v type="int" >      444 </v>
  <v type="int" >      365 </v>
  <v type="int" >      400 </v>
  <v type="int" >      357 </v>
  <v type="int" >       29 </v>
  <v type="int" >      102 </v>
  <v type="int" >      167 </v>
  <v type="int" >       39 </v>
  <v type="int" >      209 </v>
  <v type="int" >      332 </v>
  <v type="int" >      226 </v>
  <v type="int" >      388 </v>
  <v type="int" >      245 </v>
  <v type="int" >      439 </v>
  <v type="int" >      312 </v>
  <v type="int" >        6 </v>
  <v type="int" >      363 </v>
  <v type="int" >      313 </v>
  <v type="int" >      238 </v>
  <v type="int" >       78 </v>
  <v type="int" >      483 </v>
  <v type="int" >      213 </v>
  <v type="int" >      186 </v>
  <v type="int" >      445 </v>
  <v type="int" >      419 </v>
  <v type="int" >      327 </v>
  <v type="int" >       11 </v>
  <v type="int" >      187 </v>
  <v type="int" >      348 </v>
  <v type="int" >       54 </v>
  <v type="int" >      169 </v>
  <v type="int" >       76 </v>
  <v type="int" >      482 </v>
  <v type="int" >      423 </v>
  <v type="int" >      311 </v>
  <v type="int" >      231 </v>
  <v type="int" >      464 </v>
  <v type="int" >      353 </v>
  <v type="int" >       21 </v>
  <v type="int" >       93 </v>
  <v type="int" >      206 </v>
  <v type="int" >      435 </v>
  <v type="int" >      416 </v>
  <v type="int" >      310 </v>
  <v type="int" >      285 </v>
  <v type="int" >      225 </v>
  <v type="int" >       61 </v>
  <v type="int" >      342 </v>
  <v type="int" >       60 </v>
  <v type="int" >      372 </v>
  <v type="int" >      427 </v>
  <v type="int" >        7 </v>
  <v type="int" >      153 </v>
  <v type="int" >      438 </v>
  <v type="int" >       34 </v>
  <v type="int" >      232 </v>
  <v type="int" >      320 </v>
  <v type="int" >      168 </v>
  <v type="int" >      150 </v>
  <v type="int" >      101 </v>
  <v type="int" >      142 </v>
  <v type="int" >      411 </v>
  <v type="int" >       67 </v>
  <v type="int" >      394 </v>
  <v type="int" >      412 </v>
  <v type="int" >      185 </v>
  <v type="int" >      208 </v>
  <v type="int" >      337 </v>
  <v type="int" >      399 </v>
  <v type="int" >      188 </v>
  <v type="int" >      380 </v>
  <v type="int" >      237 </v>
  <v type="int" >      446 </v>
  <v type="int" >      452 </v>
  <v type="int" >      230 </v>
  <v type="int" >      309 </v>
  <v type="int" >      202 </v>
  <v type="int" >       59 </v>
  <v type="int" >       28 </v>
  <v type="int" >       33 </v>
  <v type="int" >      356 </v>
  <v type="int" >      418 </v>
  <v type="int" >      472 </v>
  <v type="int" >      451 </v>
  <v type="int" >      111 </v>
  <v type="int" >      234 </v>
  <v type="int" >      410 </v>
  <v type="int" >      343 </v>
  <v type="int" >      207 </v>
  <v type="int" >      279 </v>
  <v type="int" >      455 </v>
  <v type="int" >      134 </v>
  <v type="int" >       20 </v>
  <v type="int" >       66 </v>
  <v type="int" >      347 </v>
  <v type="int" >      413 </v>
  <v type="int" >      424 </v>
  <v type="int" >      364 </v>
  <v type="int" >       44 </v>
  <v type="int" >       13 </v>
  <v type="int" >       40 </v>
  <v type="int" >      335 </v>
  <v type="int" >      331 </v>
  <v type="int" >      251 </v>
  <v type="int" >       49 </v>
  <v type="int" >       63 </v>
  <v type="int" >      355 </v>
  <v type="int" >      184 </v>
  <v type="int" >      190 </v>
  <v type="int" >      450 </v>
  <v type="int" >      387 </v>
  <v type="int" >      260 </v>
  <v type="int" >      204 </v>
  <v type="int" >      437 </v>
  <v type="int" >      302 </v>
  <v type="int" >      233 </v>
  <v type="int" >      120 </v>
  <v type="int" >      295 </v>
  <v type="int" >      326 </v>
  <v type="int" >      456 </v>
  <v type="int" >      272 </v>
  <v type="int" >      236 </v>
  <v type="int" >      409 </v>
  <v type="int" >      273 </v>
  <v type="int" >      294 </v>
  <v type="int" >      434 </v>
  <v type="int" >        5 </v>
  <v type="int" >      249 </v>
  <v type="int" >       12 </v>
  <v type="int" >      235 </v>
  <v type="int" >       69 </v>
  <v type="int" >       73 </v>
  <v type="int" >      229 </v>
  <v type="int" >        2 </v>
  <v type="int" >      414 </v>
  <v type="int" >      100 </v>
  <v type="int" >      457 </v>
  <v type="int" >       10 </v>
  <v type="int" >      426 </v>
  <v type="int" >      371 </v>
  <v type="int" >      278 </v>
  <v type="int" >      344 </v>
  <v type="int" >       72 </v>
  <v type="int" >      271 </v>
  <v type="int" >      370 </v>
  <v type="int" >      110 </v>
  <v type="int" >       74 </v>
  <v type="int" >       27 </v>
  <v type="int" >      243 </v>
  <v type="int" >      274 </v>
  <v type="int" >       45 </v>
  <v type="int" >      130 </v>
  <v type="int" >      431 </v>
  <v type="int" >      239 </v>
  <v type="int" >      403 </v>
  <v type="int" >      194 </v>
  <v type="int" >       55 </v>
  <v type="int" >      462 </v>
  <v type="int" >      112 </v>
  <v type="int" >       57 </v>
  <v type="int" >      449 </v>
  <v type="int" >      252 </v>
  <v type="int" >      143 </v>
  <v type="int" >      442 </v>
  <v type="int" >      269 </v>
  <v type="int" >      404 </v>
  <v type="int" >       62 </v>
  <v type="int" >       64 </v>
  <v type="int" >      425 </v>
  <v type="int" >      441 </v>
  <v type="int" >       71 </v>
  <v type="int" >      301 </v>
  <v type="int" >      393 </v>
  <v type="int" >      293 </v>
  <v type="int" >      119 </v>
  <v type="int" >       50 </v>
  <v type="int" >      261 </v>
  <v type="int" >      228 </v>
  <v type="int" >       38 </v>
  <v type="int" >       75 </v>
  <v type="int" >      270 </v>
  <v type="int" >      203 </v>
  <v type="int" >      453 </v>
  <v type="int" >      408 </v>
  <v type="int" >      121 </v>
  <v type="int" >      470 </v>
  <v type="int" >      280 </v>
  <v type="int" >      286 </v>
  <v type="int" >      200 </v>
  <v type="int" >      334 </v>
  <v type="int" >      336 </v>
  <v type="int" >      485 </v>
  <v type="int" >      368 </v>
  <v type="int" >      275 </v>
  <v type="int" >      135 </v>
  <v type="int" >      284 </v>
  <v type="int" >       68 </v>
  <v type="int" >      405 </v>
  <v type="int" >      436 </v>
  <v type="int" >      415 </v>
  <v type="int" >       25 </v>
  <v type="int" >      346 </v>
  <v type="int" >      447 </v>
  <v type="int" >      242 </v>
  <v type="int" >      345 </v>
  <v type="int" >      158 </v>
  <v type="int" >      240 </v>
  <v type="int" >      303 </v>
  <v type="int" >       70 </v>
  <v type="int" >      264 </v>
  <v type="int" >      157 </v>
  <v type="int" >      193 </v>
  <v type="int" >      454 </v>
  <v type="int" >      241 </v>
  <v type="int" >      205 </v>
  <v type="int" >      253 </v>
  <v type="int" >        3 </v>
  <v type="int" >       37 </v>
  <v type="int" >       99 </v>
  <v type="int" >      308 </v>
  <v type="int" >      263 </v>
  <v type="int" >      259 </v>
  <v type="int" >      440 </v>
  <v type="int" >      448 </v>
  <v type="int" >      265 </v>
  <v type="int" >      106 </v>
  <v type="int" >       48 </v>
  <v type="int" >      277 </v>
  <v type="int" >      250 </v>
  <v type="int" >      131 </v>
  <v type="int" >      474 </v>
  <v type="int" >      105 </v>
  <v type="int" >      173 </v>
  <v type="int" >      151 </v>
  <v type="int" >        4 </v>
  <v type="int" >      174 </v>
  <v type="int" >       65 </v>
  <v type="int" >       77 </v>
  <v type="int" >      162 </v>
  <v type="int" >      417 </v>
  <v type="int" >      128 </v>
  <v type="int" >      486 </v>
  <v type="int" >      406 </v>
  <v type="int" >      113 </v>
  <v type="int" >      262 </v>
  <v type="int" >      140 </v>
  <v type="int" >      109 </v>
  <v type="int" >      122 </v>
  <v type="int" >      276 </v>
  <v type="int" >      123 </v>
  <v type="int" >      132 </v>
  <v type="int" >      287 </v>
  <v type="int" >      156 </v>
  <v type="int" >      266 </v>
  <v type="int" >      282 </v>
  <v type="int" >      433 </v>
  <v type="int" >      292 </v>
  <v type="int" >      339 </v>
  <v type="int" >      144 </v>
  <v type="int" >      159 </v>
  <v type="int" >      300 </v>
  <v type="int" >      124 </v>
  <v type="int" >      176 </v>
  <v type="int" >      459 </v>
  <v type="int" >      283 </v>
  <v type="int" >      268 </v>
  <v type="int" >       79 </v>
  <v type="int" >      104 </v>
  <v type="int" >      407 </v>
  <v type="int" >      118 </v>
  <v type="int" >       23 </v>
  <v type="int" >      369 </v>
  <v type="int" >      160 </v>
  <v type="int" >      161 </v>
  <v type="int" >      281 </v>
  <v type="int" >      467 </v>
  <v type="int" >      267 </v>
  <v type="int" >      136 </v>
  <v type="int" >      125 </v>
  <v type="int" >      254 </v>
  <v type="int" >      304 </v>
  <v type="int" >      255 </v>
  <v type="int" >      141 </v>
  <v type="int" >       85 </v>
  <v type="int" >      164 </v>
  <v type="int" >      296 </v>
  <v type="int" >      398 </v>
  <v type="int" >      139 </v>
  <v type="int" >      126 </v>
  <v type="int" >      256 </v>
  <v type="int" >      148 </v>
  <v type="int" >      258 </v>
  <v type="int" >       35 </v>
  <v type="int" >      114 </v>
  <v type="int" >      155 </v>
  <v type="int" >      129 </v>
  <v type="int" >      138 </v>
  <v type="int" >      115 </v>
  <v type="int" >       36 </v>
  <v type="int" >      108 </v>
  <v type="int" >      291 </v>
  <v type="int" >      288 </v>
  <v type="int" >      257 </v>
  <v type="int" >      290 </v>
  <v type="int" >      299 </v>
  <v type="int" >      145 </v>
  <v type="int" >      117 </v>
  <v type="int" >      137 </v>
  <v type="int" >      127 </v>
  <v type="int" >      289 </v>
  <v type="int" >      307 </v>
  <v type="int" >      305 </v>
  <v type="int" >      147 </v>
  <v type="int" >      297 </v>
  <v type="int" >      306 </v>
  <v type="int" >      116 </v>
  <v type="int" >      146 </v>
  <v type="int" >      107 </v>
  <v type="int" >      298 </v>
 </varray>
 <kpoints>
  <generation param="Gamma">
   <v type="int" name="divisions">       3        3        1 </v>
   <v name="usershift">      0.00000000       0.00000000       0.00000000 </v>
   <v name="genvec1">      0.33333333       0.00000000       0.00000000 </v>
   <v name="genvec2">      0.00000000       0.33333333       0.00000000 </v>
   <v name="genvec3">      0.00000000       0.00000000       1.00000000 </v>
   <v name="shift">      0.00000000       0.00000000       0.00000000 </v>
  </generation>
  <varray name="kpointlist" >
   <v>       0.00000000       0.00000000       0.00000000 </v>
   <v>       0.33333333      -0.00000000       0.00000000 </v>
   <v>       0.00000000       0.33333333       0.00000000 </v>
   <v>       0.33333333       0.33333333       0.00000000 </v>
   <v>      -0.33333333       0.33333333      -0.00000000 </v>
  </varray>
  <varray name="weights" >
   <v>       0.11111111 </v>
   <v>       0.22222222 </v>
   <v>       0.22222222 </v>
   <v>       0.22222222 </v>
   <v>       0.22222222 </v>
  </varray>
  <varray name="tetrahedronlist"  type="int" >
   <v type="int" >        2        1        2        2        3 </v>
   <v type="int" >        2        2        2        3        4 </v>
   <v type="int" >        2        2        3        4        4 </v>
   <v type="int" >        2        1        1        2        3 </v>
   <v type="int" >        2        1        2        3        3 </v>
   <v type="int" >        2        2        3        3        4 </v>
   <v type="int" >        4        2        2        2        4 </v>
   <v type="int" >        2        2        2        4        5 </v>
   <v type="int" >        2        2        4        5        5 </v>
   <v type="int" >        2        2        2        4        4 </v>
   <v type="int" >        2        2        4        4        5 </v>
   <v type="int" >        2        1        1        2        5 </v>
   <v type="int" >        2        1        1        3        5 </v>
   <v type="int" >        2        1        3        3        5 </v>
   <v type="int" >        2        1        2        2        5 </v>
   <v type="int" >        2        1        2        5        5 </v>
   <v type="int" >        2        1        3        5        5 </v>
   <v type="int" >        2        3        3        4        4 </v>
   <v type="int" >        2        3        4        4        5 </v>
   <v type="int" >        2        3        4        5        5 </v>
   <v type="int" >        4        3        3        3        4 </v>
   <v type="int" >        2        3        3        4        5 </v>
   <v type="int" >        4        4        5        5        5 </v>
   <v type="int" >        2        4        4        5        5 </v>
  </varray>
  <i name="volumeweight">      0.01851852 </i>
 </kpoints>
 <parameters>
  <separator name="general" >
   <i type="string" name="SYSTEM">unknown system</i>
   <i type="logical" name="LCOMPAT"> F  </i>
  </separator>
  <separator name="electronic" >
   <i type="string" name="PREC">accura</i>
   <i name="ENMAX">    350.00000000</i>
   <i name="ENAUG">    644.87300000</i>
   <i name="EDIFF">      0.00001000</i>
   <i type="int" name="IALGO">    48</i>
   <i type="int" name="IWAVPR">    10</i>
   <i type="int" name="NBANDS">  1536</i>
   <i name="NELECT">   1842.00000000</i>
   <i type="int" name="TURBO">     0</i>
   <i type="int" name="IRESTART">     0</i>
   <i type="int" name="NREBOOT">     0</i>
   <i type="int" name="NMIN">     0</i>
   <i name="EREF">      0.00000000</i>
   <separator name="electronic smearing" >
    <i type="int" name="ISMEAR">    -5</i>
    <i name="SIGMA">      0.20000000</i>
    <i name="KSPACING">      0.50000000</i>
    <i type="logical" name="KGAMMA"> T  </i>
   </separator>
   <separator name="electronic projectors" >
    <i type="logical" name="LREAL"> T  </i>
    <v name="ROPT">     -0.00025000     -0.00025000     -0.00025000     -0.00025000</v>
    <i type="int" name="LMAXPAW">  -100</i>
    <i type="int" name="LMAXMIX">     2</i>
    <i type="logical" name="NLSPLINE"> F  </i>
   </separator>
   <separator name="electronic startup" >
    <i type="int" name="ISTART">     0</i>
    <i type="int" name="ICHARG">     2</i>
    <i type="int" name="INIWAV">     1</i>
   </separator>
   <separator name="electronic spin" >
    <i type="int" name="ISPIN">     1</i>
    <i type="logical" name="LNONCOLLINEAR"> F  </i>
    <v name="MAGMOM">      1.00000000      1.00000000      1.00000000      1.00000000      1.00000000      1.00000000      1.00000000      1.00000000      1.00000000      1.00000000      1.00000000      1.00000000      1.00000000      1.00000000      1.00000000      1.00000000      1.00000000      1.00000000      1.00000000      1.00000000
      1.00000000      1.00000000      1.00000000      1.00000000      1.00000000      1.00000000      1.00000000      1.00000000      1.00000000      1.00000000      1.00000000      1.00000000      1.00000000      1.00000000      1.00000000      1.00000000      1.00000000      1.00000000      1.00000000      1.00000000
      1.00000000      1.00000000      1.00000000      1.00000000      1.00000000      1.00000000      1.00000000      1.00000000      1.00000000      1.00000000      1.00000000      1.00000000      1.00000000      1.00000000      1.00000000      1.00000000      1.00000000      1.00000000      1.00000000      1.00000000
      1.00000000      1.00000000      1.00000000      1.00000000      1.00000000      1.00000000      1.00000000      1.00000000      1.00000000      1.00000000      1.00000000      1.00000000      1.00000000      1.00000000      1.00000000      1.00000000      1.00000000      1.00000000      1.00000000      1.00000000
      1.00000000      1.00000000      1.00000000      1.00000000      1.00000000      1.00000000      1.00000000      1.00000000      1.00000000      1.00000000      1.00000000      1.00000000      1.00000000      1.00000000      1.00000000      1.00000000      1.00000000      1.00000000      1.00000000      1.00000000
      1.00000000      1.00000000      1.00000000      1.00000000      1.00000000      1.00000000      1.00000000      1.00000000      1.00000000      1.00000000      1.00000000      1.00000000      1.00000000      1.00000000      1.00000000      1.00000000      1.00000000      1.00000000      1.00000000      1.00000000
      1.00000000      1.00000000      1.00000000      1.00000000      1.00000000      1.00000000      1.00000000      1.00000000      1.00000000      1.00000000      1.00000000      1.00000000      1.00000000      1.00000000      1.00000000      1.00000000      1.00000000      1.00000000      1.00000000      1.00000000
      1.00000000      1.00000000      1.00000000      1.00000000      1.00000000      1.00000000      1.00000000      1.00000000      1.00000000      1.00000000      1.00000000      1.00000000      1.00000000      1.00000000      1.00000000      1.00000000      1.00000000      1.00000000      1.00000000      1.00000000
      1.00000000      1.00000000      1.00000000      1.00000000      1.00000000      1.00000000      1.00000000      1.00000000      1.00000000      1.00000000      1.00000000      1.00000000      1.00000000      1.00000000      1.00000000      1.00000000      1.00000000      1.00000000      1.00000000      1.00000000
      1.00000000      1.00000000      1.00000000      1.00000000      1.00000000      1.00000000      1.00000000      1.00000000      1.00000000      1.00000000      1.00000000      1.00000000      1.00000000      1.00000000      1.00000000      1.00000000      1.00000000      1.00000000      1.00000000      1.00000000
      1.00000000      1.00000000      1.00000000      1.00000000      1.00000000      1.00000000      1.00000000      1.00000000      1.00000000      1.00000000      1.00000000      1.00000000      1.00000000      1.00000000      1.00000000      1.00000000      1.00000000      1.00000000      1.00000000      1.00000000
      1.00000000      1.00000000      1.00000000      1.00000000      1.00000000      1.00000000      1.00000000      1.00000000      1.00000000      1.00000000      1.00000000      1.00000000      1.00000000      1.00000000      1.00000000      1.00000000      1.00000000      1.00000000      1.00000000      1.00000000
      1.00000000      1.00000000      1.00000000      1.00000000      1.00000000      1.00000000      1.00000000      1.00000000      1.00000000      1.00000000      1.00000000      1.00000000      1.00000000      1.00000000      1.00000000      1.00000000      1.00000000      1.00000000      1.00000000      1.00000000
      1.00000000      1.00000000      1.00000000      1.00000000      1.00000000      1.00000000      1.00000000      1.00000000      1.00000000      1.00000000      1.00000000      1.00000000      1.00000000      1.00000000      1.00000000      1.00000000      1.00000000      1.00000000      1.00000000      1.00000000
      1.00000000      1.00000000      1.00000000      1.00000000      1.00000000      1.00000000      1.00000000      1.00000000      1.00000000      1.00000000      1.00000000      1.00000000      1.00000000      1.00000000      1.00000000      1.00000000      1.00000000      1.00000000      1.00000000      1.00000000
      1.00000000      1.00000000      1.00000000      1.00000000      1.00000000      1.00000000      1.00000000      1.00000000      1.00000000      1.00000000      1.00000000      1.00000000      1.00000000      1.00000000      1.00000000      1.00000000      1.00000000      1.00000000      1.00000000      1.00000000
      1.00000000      1.00000000      1.00000000      1.00000000      1.00000000      1.00000000      1.00000000      1.00000000      1.00000000      1.00000000      1.00000000      1.00000000      1.00000000      1.00000000      1.00000000      1.00000000      1.00000000      1.00000000      1.00000000      1.00000000
      1.00000000      1.00000000      1.00000000      1.00000000      1.00000000      1.00000000      1.00000000      1.00000000      1.00000000      1.00000000      1.00000000      1.00000000      1.00000000      1.00000000      1.00000000      1.00000000      1.00000000      1.00000000      1.00000000      1.00000000
      1.00000000      1.00000000      1.00000000      1.00000000      1.00000000      1.00000000      1.00000000      1.00000000      1.00000000      1.00000000      1.00000000      1.00000000      1.00000000      1.00000000      1.00000000      1.00000000      1.00000000      1.00000000      1.00000000      1.00000000
      1.00000000      1.00000000      1.00000000      1.00000000      1.00000000      1.00000000      1.00000000      1.00000000      1.00000000      1.00000000      1.00000000      1.00000000      1.00000000      1.00000000      1.00000000      1.00000000      1.00000000      1.00000000      1.00000000      1.00000000
      1.00000000      1.00000000      1.00000000      1.00000000      1.00000000      1.00000000      1.00000000      1.00000000      1.00000000      1.00000000      1.00000000      1.00000000      1.00000000      1.00000000      1.00000000      1.00000000      1.00000000      1.00000000      1.00000000      1.00000000
      1.00000000      1.00000000      1.00000000      1.00000000      1.00000000      1.00000000      1.00000000      1.00000000      1.00000000      1.00000000      1.00000000      1.00000000      1.00000000      1.00000000      1.00000000      1.00000000      1.00000000      1.00000000      1.00000000      1.00000000
      1.00000000      1.00000000      1.00000000      1.00000000      1.00000000      1.00000000      1.00000000      1.00000000      1.00000000      1.00000000      1.00000000      1.00000000      1.00000000      1.00000000      1.00000000      1.00000000      1.00000000      1.00000000      1.00000000      1.00000000
      1.00000000      1.00000000      1.00000000      1.00000000      1.00000000      1.00000000      1.00000000      1.00000000      1.00000000      1.00000000      1.00000000      1.00000000      1.00000000      1.00000000      1.00000000      1.00000000      1.00000000      1.00000000      1.00000000      1.00000000
      1.00000000      1.00000000      1.00000000      1.00000000      1.00000000      1.00000000</v>
    <i name="NUPDOWN">     -1.00000000</i>
    <i type="logical" name="LSORBIT"> F  </i>
    <v name="SAXIS">      0.00000000      0.00000000      1.00000000</v>
    <i type="logical" name="LSPIRAL"> F  </i>
    <v name="QSPIRAL">      0.00000000      0.00000000      0.00000000</v>
    <i type="logical" name="LZEROZ"> F  </i>
   </separator>
   <separator name="electronic exchange-correlation" >
    <i type="logical" name="LASPH"> F  </i>
    <i type="logical" name="LMETAGGA"> F  </i>
   </separator>
   <separator name="electronic convergence" >
    <i type="int" name="NELM">   200</i>
    <i type="int" name="NELMDL">   -12</i>
    <i type="int" name="NELMIN">     2</i>
    <i name="ENINI">    350.00000000</i>
    <separator name="electronic convergence detail" >
     <i type="logical" name="LDIAG"> T  </i>
     <i type="logical" name="LSUBROT"> F  </i>
     <i name="WEIMIN">      0.00000000</i>
     <i name="EBREAK">      0.00000000</i>
     <i name="DEPER">      0.30000000</i>
     <i type="int" name="NRMM">     4</i>
     <i name="TIME">      0.40000000</i>
    </separator>
   </separator>
   <separator name="electronic mixer" >
    <i name="AMIX">      0.40000000</i>
    <i name="BMIX">      1.00000000</i>
    <i name="AMIN">      0.10000000</i>
    <i name="AMIX_MAG">      1.60000000</i>
    <i name="BMIX_MAG">      1.00000000</i>
    <separator name="electronic mixer details" >
     <i type="int" name="IMIX">     4</i>
     <i type="logical" name="MIXFIRST"> F  </i>
     <i type="int" name="MAXMIX">   -45</i>
     <i name="WC">    100.00000000</i>
     <i type="int" name="INIMIX">     1</i>
     <i type="int" name="MIXPRE">     1</i>
     <i type="int" name="MREMOVE">     5</i>
    </separator>
   </separator>
   <separator name="electronic dipolcorrection" >
    <i type="logical" name="LDIPOL"> F  </i>
    <i type="logical" name="LMONO"> F  </i>
    <i type="int" name="IDIPOL">     0</i>
    <i name="EPSILON">      1.00000000</i>
    <v name="DIPOL">   -100.00000000   -100.00000000   -100.00000000</v>
    <i name="EFIELD">      0.00000000</i>
   </separator>
  </separator>
  <separator name="grids" >
   <i type="int" name="NGX">   192</i>
   <i type="int" name="NGY">   192</i>
   <i type="int" name="NGZ">   180</i>
   <i type="int" name="NGXF">   384</i>
   <i type="int" name="NGYF">   384</i>
   <i type="int" name="NGZF">   360</i>
   <i type="logical" name="ADDGRID"> F  </i>
  </separator>
  <separator name="ionic" >
   <i type="int" name="NSW">     0</i>
   <i type="int" name="IBRION">    -1</i>
   <i type="int" name="MDALGO">     0</i>
   <i type="int" name="ISIF">     2</i>
   <i name="PSTRESS">      0.00000000</i>
   <i name="EDIFFG">     -0.01000000</i>
   <i type="int" name="NFREE">     0</i>
   <i name="POTIM">      0.50000000</i>
   <i name="SMASS">     -3.00000000</i>
   <i name="SCALEE">      1.00000000</i>
  </separator>
  <separator name="ionic md" >
   <i name="TEBEG">      0.00010000</i>
   <i name="TEEND">      0.00010000</i>
   <i type="int" name="NBLOCK">     1</i>
   <i type="int" name="KBLOCK">     1</i>
   <i type="int" name="NPACO">   256</i>
   <i name="APACO">     16.00000000</i>
  </separator>
  <separator name="symmetry" >
   <i type="int" name="ISYM">     2</i>
   <i name="SYMPREC">      0.00001000</i>
  </separator>
  <separator name="dos" >
   <i type="int" name="LORBIT">     0</i>
   <v name="RWIGS">     -1.00000000     -1.00000000     -1.00000000     -1.00000000</v>
   <i type="int" name="NEDOS">   301</i>
   <i name="EMIN">     10.00000000</i>
   <i name="EMAX">    -10.00000000</i>
   <i name="EFERMI">      0.00000000</i>
  </separator>
  <separator name="writing" >
   <i type="int" name="NWRITE">     2</i>
   <i type="logical" name="LWAVE"> T  </i>
   <i type="logical" name="LDOWNSAMPLE"> F  </i>
   <i type="logical" name="LCHARG"> T  </i>
   <i type="logical" name="LPARD"> F  </i>
   <i type="logical" name="LVTOT"> F  </i>
   <i type="logical" name="LVHAR"> F  </i>
   <i type="logical" name="LELF"> F  </i>
   <i type="logical" name="LOPTICS"> F  </i>
   <v name="STM">      0.00000000      0.00000000      0.00000000      0.00000000      0.00000000      0.00000000      0.00000000</v>
  </separator>
  <separator name="performance" >
   <i type="int" name="NPAR">   512</i>
   <i type="int" name="NSIM">     4</i>
   <i type="int" name="NBLK">    -1</i>
   <i type="logical" name="LPLANE"> T  </i>
   <i type="logical" name="LSCALAPACK"> T  </i>
   <i type="logical" name="LSCAAWARE"> T  </i>
   <i type="logical" name="LSCALU"> F  </i>
   <i type="logical" name="LASYNC"> F  </i>
   <i type="logical" name="LORBITALREAL"> F  </i>
  </separator>
  <separator name="miscellaneous" >
   <i type="int" name="IDIOT">     3</i>
   <i type="int" name="ISPECIAL">     0</i>
   <i type="logical" name="LMUSIC"> F  </i>
   <v name="POMASS">      1.00000000     16.00000000     14.00100000     12.01100000</v>
   <v name="DARWINR">      0.00000000      0.00000000      0.00000000      0.00000000</v>
   <v name="DARWINV">      1.00000000      1.00000000      1.00000000      1.00000000</v>
   <i type="logical" name="LCORR"> T  </i>
  </separator>
  <i type="logical" name="GGA_COMPAT"> T  </i>
  <i type="logical" name="LBERRY"> F  </i>
  <i type="int" name="ICORELEVEL">     0</i>
  <i type="logical" name="LDAU"> F  </i>
  <i type="int" name="I_CONSTRAINED_M">     0</i>
  <separator name="electronic exchange-correlation" >
   <i type="string" name="GGA">--</i>
   <i type="int" name="VOSKOWN">     0</i>
   <i type="logical" name="LHFCALC"> F  </i>
   <i type="string" name="PRECFOCK"></i>
   <i type="logical" name="LSYMGRAD"> F  </i>
   <i type="logical" name="LHFONE"> F  </i>
   <i type="logical" name="LRHFCALC"> F  </i>
   <i type="logical" name="LTHOMAS"> F  </i>
   <i type="logical" name="LMODELHF"> F  </i>
   <i name="ENCUT4O">     -1.00000000</i>
   <i type="int" name="EXXOEP">     0</i>
   <i type="int" name="FOURORBIT">     0</i>
   <i name="AEXX">      0.00000000</i>
   <i name="HFALPHA">      0.00000000</i>
   <i name="MCALPHA">      0.00000000</i>
   <i name="ALDAX">      1.00000000</i>
   <i name="AGGAX">      1.00000000</i>
   <i name="ALDAC">      1.00000000</i>
   <i name="AGGAC">      1.00000000</i>
   <i type="int" name="NKREDX">     1</i>
   <i type="int" name="NKREDY">     1</i>
   <i type="int" name="NKREDZ">     1</i>
   <i type="logical" name="SHIFTRED"> F  </i>
   <i type="logical" name="ODDONLY"> F  </i>
   <i type="logical" name="EVENONLY"> F  </i>
   <i type="int" name="LMAXFOCK">     0</i>
   <i type="int" name="NMAXFOCKAE">     0</i>
   <i type="logical" name="LFOCKAEDFT"> F  </i>
   <i name="HFSCREEN">      0.00000000</i>
   <i name="HFSCREENC">      0.00000000</i>
   <i type="int" name="NBANDSGWLOW">     0</i>
  </separator>
  <separator name="vdW DFT" >
   <i type="logical" name="LUSE_VDW"> F  </i>
   <i name="Zab_VDW">     -0.84910000</i>
   <i name="PARAM1">      0.12340000</i>
   <i name="PARAM2">      1.00000000</i>
   <i name="PARAM3">      0.00000000</i>
  </separator>
  <separator name="model GW" >
   <i type="int" name="MODEL_GW">     0</i>
   <i name="MODEL_EPS0">     32.64822165</i>
   <i name="MODEL_ALPHA">      1.00000000</i>
  </separator>
  <separator name="linear response parameters" >
   <i type="logical" name="LEPSILON"> F  </i>
   <i type="logical" name="LRPA"> F  </i>
   <i type="logical" name="LNABLA"> F  </i>
   <i type="logical" name="LVEL"> F  </i>
   <i type="int" name="KINTER">     0</i>
   <i name="CSHIFT">      0.10000000</i>
   <i name="OMEGAMAX">     -1.00000000</i>
   <i name="DEG_THRESHOLD">      0.00200000</i>
   <i name="RTIME">     -0.10000000</i>
   <i name="WPLASMAI">      0.00000000</i>
   <v name="DFIELD">      0.00000000      0.00000000      0.00000000</v>
   <v name="WPLASMA">      0.00000000      0.00000000      0.00000000      0.00000000      0.00000000      0.00000000      0.00000000      0.00000000      0.00000000</v>
  </separator>
  <separator name="orbital magnetization" >
   <i type="logical" name="NUCIND"> F  </i>
   <v name="MAGPOS">      0.00000000      0.00000000      0.00000000</v>
   <i type="logical" name="LNICSALL"> T  </i>
   <i type="logical" name="ORBITALMAG"> F  </i>
   <i type="logical" name="LMAGBLOCH"> F  </i>
   <i type="logical" name="LCHIMAG"> F  </i>
   <i type="logical" name="LGAUGE"> T  </i>
   <i type="int" name="MAGATOM">     0</i>
   <v name="MAGDIPOL">      0.00000000      0.00000000      0.00000000</v>
   <v name="AVECCONST">      0.00000000      0.00000000      0.00000000</v>
  </separator>
  <separator name="response functions" >
   <i type="logical" name="LADDER"> F  </i>
   <i type="logical" name="LRPAFORCE"> F  </i>
   <i type="logical" name="LFXC"> F  </i>
   <i type="logical" name="LHARTREE"> T  </i>
   <i type="int" name="IBSE">     0</i>
   <v type="int" name="KPOINT">    -1     0     0     0</v>
   <i type="logical" name="LTCTE"> F  </i>
   <i type="logical" name="LTETE"> F  </i>
   <i type="logical" name="LTRIPLET"> F  </i>
   <i type="logical" name="LFXCEPS"> F  </i>
   <i type="logical" name="LFXHEG"> F  </i>
   <i type="int" name="NATURALO">     2</i>
   <i type="logical" name="L2ORDER"> F  </i>
   <i type="logical" name="LMP2LT"> F  </i>
   <i type="logical" name="LUSEW"> F  </i>
   <i name="ENCUTGW">     -2.00000000</i>
   <i name="ENCUTGWSOFT">     -2.00000000</i>
   <i name="ENCUTLF">     -1.00000000</i>
   <i type="int" name="LMAXMP2">    -1</i>
   <i name="SCISSOR">      0.00000000</i>
   <i type="int" name="NOMEGA">     0</i>
   <i type="int" name="NOMEGAR">     0</i>
   <i type="int" name="NBANDSGW">    -1</i>
   <i type="int" name="NBANDSO">    -1</i>
   <i type="int" name="NBANDSV">    -1</i>
   <i type="int" name="NELM">   200</i>
   <i type="int" name="NELMHF">     1</i>
   <i type="int" name="DIM">     3</i>
   <i type="int" name="ANTIRES">     0</i>
   <i name="OMEGAMAX">    -30.00000000</i>
   <i name="OMEGAMIN">    -30.00000000</i>
   <i name="OMEGATL">   -200.00000000</i>
   <i type="int" name="OMEGAGRID">   140</i>
   <i name="CSHIFT">     -0.10000000</i>
   <i type="logical" name="SELFENERGY"> F  </i>
   <i type="logical" name="LSPECTRAL"> F  </i>
   <i type="logical" name="LSPECTRALGW"> F  </i>
   <i type="logical" name="LSINGLES"> F  </i>
   <i type="logical" name="LFERMIGW"> F  </i>
   <i type="logical" name="ODDONLYGW"> F  </i>
   <i type="logical" name="EVENONLYGW"> F  </i>
   <i type="int" name="NKREDLFX">     1</i>
   <i type="int" name="NKREDLFY">     1</i>
   <i type="int" name="NKREDLFZ">     1</i>
   <i type="int" name="MAXMEM">  2800</i>
   <i type="int" name="TELESCOPE">     0</i>
   <i type="int" name="TAUPAR">     1</i>
   <i type="int" name="OMEGAPAR">    -1</i>
   <i name="LAMBDA">      1.00000000</i>
  </separator>
  <separator name="External order field" >
   <i name="OFIELD_KAPPA">      0.00000000</i>
   <v name="OFIELD_K">      0.00000000      0.00000000      0.00000000</v>
   <i name="OFIELD_Q6_NEAR">      0.00000000</i>
   <i name="OFIELD_Q6_FAR">      0.00000000</i>
   <i name="OFIELD_A">      0.00000000</i>
  </separator>
 </parameters>
 <atominfo>
  <atoms>     486 </atoms>
  <types>       4 </types>
  <array name="atoms" >
   <dimension dim="1">ion</dimension>
   <field type="string">element</field>
   <field type="int">atomtype</field>
   <set>
    <rc><c>H </c><c>   1</c></rc>
    <rc><c>H </c><c>   1</c></rc>
    <rc><c>H </c><c>   1</c></rc>
    <rc><c>H </c><c>   1</c></rc>
    <rc><c>H </c><c>   1</c></rc>
    <rc><c>H </c><c>   1</c></rc>
    <rc><c>H </c><c>   1</c></rc>
    <rc><c>H </c><c>   1</c></rc>
    <rc><c>H </c><c>   1</c></rc>
    <rc><c>H </c><c>   1</c></rc>
    <rc><c>H </c><c>   1</c></rc>
    <rc><c>H </c><c>   1</c></rc>
    <rc><c>H </c><c>   1</c></rc>
    <rc><c>H </c><c>   1</c></rc>
    <rc><c>H </c><c>   1</c></rc>
    <rc><c>H </c><c>   1</c></rc>
    <rc><c>H </c><c>   1</c></rc>
    <rc><c>H </c><c>   1</c></rc>
    <rc><c>H </c><c>   1</c></rc>
    <rc><c>H </c><c>   1</c></rc>
    <rc><c>H </c><c>   1</c></rc>
    <rc><c>H </c><c>   1</c></rc>
    <rc><c>H </c><c>   1</c></rc>
    <rc><c>H </c><c>   1</c></rc>
    <rc><c>H </c><c>   1</c></rc>
    <rc><c>H </c><c>   1</c></rc>
    <rc><c>H </c><c>   1</c></rc>
    <rc><c>H </c><c>   1</c></rc>
    <rc><c>H </c><c>   1</c></rc>
    <rc><c>H </c><c>   1</c></rc>
    <rc><c>H </c><c>   1</c></rc>
    <rc><c>H </c><c>   1</c></rc>
    <rc><c>H </c><c>   1</c></rc>
    <rc><c>H </c><c>   1</c></rc>
    <rc><c>H </c><c>   1</c></rc>
    <rc><c>H </c><c>   1</c></rc>
    <rc><c>H </c><c>   1</c></rc>
    <rc><c>H </c><c>   1</c></rc>
    <rc><c>H </c><c>   1</c></rc>
    <rc><c>H </c><c>   1</c></rc>
    <rc><c>H </c><c>   1</c></rc>
    <rc><c>H </c><c>   1</c></rc>
    <rc><c>O </c><c>   2</c></rc>
    <rc><c>O </c><c>   2</c></rc>
    <rc><c>O </c><c>   2</c></rc>
    <rc><c>O </c><c>   2</c></rc>
    <rc><c>O </c><c>   2</c></rc>
    <rc><c>O </c><c>   2</c></rc>
    <rc><c>O </c><c>   2</c></rc>
    <rc><c>O </c><c>   2</c></rc>
    <rc><c>N </c><c>   3</c></rc>
    <rc><c>N </c><c>   3</c></rc>
    <rc><c>N </c><c>   3</c></rc>
    <rc><c>N </c><c>   3</c></rc>
    <rc><c>N </c><c>   3</c></rc>
    <rc><c>N </c><c>   3</c></rc>
    <rc><c>N </c><c>   3</c></rc>
    <rc><c>N </c><c>   3</c></rc>
    <rc><c>C </c><c>   4</c></rc>
    <rc><c>C </c><c>   4</c></rc>
    <rc><c>C </c><c>   4</c></rc>
    <rc><c>C </c><c>   4</c></rc>
    <rc><c>C </c><c>   4</c></rc>
    <rc><c>C </c><c>   4</c></rc>
    <rc><c>C </c><c>   4</c></rc>
    <rc><c>C </c><c>   4</c></rc>
    <rc><c>C </c><c>   4</c></rc>
    <rc><c>C </c><c>   4</c></rc>
    <rc><c>C </c><c>   4</c></rc>
    <rc><c>C </c><c>   4</c></rc>
    <rc><c>C </c><c>   4</c></rc>
    <rc><c>C </c><c>   4</c></rc>
    <rc><c>C </c><c>   4</c></rc>
    <rc><c>C </c><c>   4</c></rc>
    <rc><c>C </c><c>   4</c></rc>
    <rc><c>C </c><c>   4</c></rc>
    <rc><c>C </c><c>   4</c></rc>
    <rc><c>C </c><c>   4</c></rc>
    <rc><c>C </c><c>   4</c></rc>
    <rc><c>C </c><c>   4</c></rc>
    <rc><c>C </c><c>   4</c></rc>
    <rc><c>C </c><c>   4</c></rc>
    <rc><c>C </c><c>   4</c></rc>
    <rc><c>C </c><c>   4</c></rc>
    <rc><c>C </c><c>   4</c></rc>
    <rc><c>C </c><c>   4</c></rc>
    <rc><c>C </c><c>   4</c></rc>
    <rc><c>C </c><c>   4</c></rc>
    <rc><c>C </c><c>   4</c></rc>
    <rc><c>C </c><c>   4</c></rc>
    <rc><c>C </c><c>   4</c></rc>
    <rc><c>C </c><c>   4</c></rc>
    <rc><c>C </c><c>   4</c></rc>
    <rc><c>C </c><c>   4</c></rc>
    <rc><c>C </c><c>   4</c></rc>
    <rc><c>C </c><c>   4</c></rc>
    <rc><c>C </c><c>   4</c></rc>
    <rc><c>C </c><c>   4</c></rc>
    <rc><c>C </c><c>   4</c></rc>
    <rc><c>C </c><c>   4</c></rc>
    <rc><c>C </c><c>   4</c></rc>
    <rc><c>C </c><c>   4</c></rc>
    <rc><c>C </c><c>   4</c></rc>
    <rc><c>C </c><c>   4</c></rc>
    <rc><c>C </c><c>   4</c></rc>
    <rc><c>C </c><c>   4</c></rc>
    <rc><c>C </c><c>   4</c></rc>
    <rc><c>C </c><c>   4</c></rc>
    <rc><c>C </c><c>   4</c></rc>
    <rc><c>C </c><c>   4</c></rc>
    <rc><c>C </c><c>   4</c></rc>
    <rc><c>C </c><c>   4</c></rc>
    <rc><c>C </c><c>   4</c></rc>
    <rc><c>C </c><c>   4</c></rc>
    <rc><c>C </c><c>   4</c></rc>
    <rc><c>C </c><c>   4</c></rc>
    <rc><c>C </c><c>   4</c></rc>
    <rc><c>C </c><c>   4</c></rc>
    <rc><c>C </c><c>   4</c></rc>
    <rc><c>C </c><c>   4</c></rc>
    <rc><c>C </c><c>   4</c></rc>
    <rc><c>C </c><c>   4</c></rc>
    <rc><c>C </c><c>   4</c></rc>
    <rc><c>C </c><c>   4</c></rc>
    <rc><c>C </c><c>   4</c></rc>
    <rc><c>C </c><c>   4</c></rc>
    <rc><c>C </c><c>   4</c></rc>
    <rc><c>C </c><c>   4</c></rc>
    <rc><c>C </c><c>   4</c></rc>
    <rc><c>C </c><c>   4</c></rc>
    <rc><c>C </c><c>   4</c></rc>
    <rc><c>C </c><c>   4</c></rc>
    <rc><c>C </c><c>   4</c></rc>
    <rc><c>C </c><c>   4</c></rc>
    <rc><c>C </c><c>   4</c></rc>
    <rc><c>C </c><c>   4</c></rc>
    <rc><c>C </c><c>   4</c></rc>
    <rc><c>C </c><c>   4</c></rc>
    <rc><c>C </c><c>   4</c></rc>
    <rc><c>C </c><c>   4</c></rc>
    <rc><c>C </c><c>   4</c></rc>
    <rc><c>C </c><c>   4</c></rc>
    <rc><c>C </c><c>   4</c></rc>
    <rc><c>C </c><c>   4</c></rc>
    <rc><c>C </c><c>   4</c></rc>
    <rc><c>C </c><c>   4</c></rc>
    <rc><c>C </c><c>   4</c></rc>
    <rc><c>C </c><c>   4</c></rc>
    <rc><c>C </c><c>   4</c></rc>
    <rc><c>C </c><c>   4</c></rc>
    <rc><c>C </c><c>   4</c></rc>
    <rc><c>C </c><c>   4</c></rc>
    <rc><c>C </c><c>   4</c></rc>
    <rc><c>C </c><c>   4</c></rc>
    <rc><c>C </c><c>   4</c></rc>
    <rc><c>C </c><c>   4</c></rc>
    <rc><c>C </c><c>   4</c></rc>
    <rc><c>C </c><c>   4</c></rc>
    <rc><c>C </c><c>   4</c></rc>
    <rc><c>C </c><c>   4</c></rc>
    <rc><c>C </c><c>   4</c></rc>
    <rc><c>C </c><c>   4</c></rc>
    <rc><c>C </c><c>   4</c></rc>
    <rc><c>C </c><c>   4</c></rc>
    <rc><c>C </c><c>   4</c></rc>
    <rc><c>C </c><c>   4</c></rc>
    <rc><c>C </c><c>   4</c></rc>
    <rc><c>C </c><c>   4</c></rc>
    <rc><c>C </c><c>   4</c></rc>
    <rc><c>C </c><c>   4</c></rc>
    <rc><c>C </c><c>   4</c></rc>
    <rc><c>C </c><c>   4</c></rc>
    <rc><c>C </c><c>   4</c></rc>
    <rc><c>C </c><c>   4</c></rc>
    <rc><c>C </c><c>   4</c></rc>
    <rc><c>C </c><c>   4</c></rc>
    <rc><c>C </c><c>   4</c></rc>
    <rc><c>C </c><c>   4</c></rc>
    <rc><c>C </c><c>   4</c></rc>
    <rc><c>C </c><c>   4</c></rc>
    <rc><c>C </c><c>   4</c></rc>
    <rc><c>C </c><c>   4</c></rc>
    <rc><c>C </c><c>   4</c></rc>
    <rc><c>C </c><c>   4</c></rc>
    <rc><c>C </c><c>   4</c></rc>
    <rc><c>C </c><c>   4</c></rc>
    <rc><c>C </c><c>   4</c></rc>
    <rc><c>C </c><c>   4</c></rc>
    <rc><c>C </c><c>   4</c></rc>
    <rc><c>C </c><c>   4</c></rc>
    <rc><c>C </c><c>   4</c></rc>
    <rc><c>C </c><c>   4</c></rc>
    <rc><c>C </c><c>   4</c></rc>
    <rc><c>C </c><c>   4</c></rc>
    <rc><c>C </c><c>   4</c></rc>
    <rc><c>C </c><c>   4</c></rc>
    <rc><c>C </c><c>   4</c></rc>
    <rc><c>C </c><c>   4</c></rc>
    <rc><c>C </c><c>   4</c></rc>
    <rc><c>C </c><c>   4</c></rc>
    <rc><c>C </c><c>   4</c></rc>
    <rc><c>C </c><c>   4</c></rc>
    <rc><c>C </c><c>   4</c></rc>
    <rc><c>C </c><c>   4</c></rc>
    <rc><c>C </c><c>   4</c></rc>
    <rc><c>C </c><c>   4</c></rc>
    <rc><c>C </c><c>   4</c></rc>
    <rc><c>C </c><c>   4</c></rc>
    <rc><c>C </c><c>   4</c></rc>
    <rc><c>C </c><c>   4</c></rc>
    <rc><c>C </c><c>   4</c></rc>
    <rc><c>C </c><c>   4</c></rc>
    <rc><c>C </c><c>   4</c></rc>
    <rc><c>C </c><c>   4</c></rc>
    <rc><c>C </c><c>   4</c></rc>
    <rc><c>C </c><c>   4</c></rc>
    <rc><c>C </c><c>   4</c></rc>
    <rc><c>C </c><c>   4</c></rc>
    <rc><c>C </c><c>   4</c></rc>
    <rc><c>C </c><c>   4</c></rc>
    <rc><c>C </c><c>   4</c></rc>
    <rc><c>C </c><c>   4</c></rc>
    <rc><c>C </c><c>   4</c></rc>
    <rc><c>C </c><c>   4</c></rc>
    <rc><c>C </c><c>   4</c></rc>
    <rc><c>C </c><c>   4</c></rc>
    <rc><c>C </c><c>   4</c></rc>
    <rc><c>C </c><c>   4</c></rc>
    <rc><c>C </c><c>   4</c></rc>
    <rc><c>C </c><c>   4</c></rc>
    <rc><c>C </c><c>   4</c></rc>
    <rc><c>C </c><c>   4</c></rc>
    <rc><c>C </c><c>   4</c></rc>
    <rc><c>C </c><c>   4</c></rc>
    <rc><c>C </c><c>   4</c></rc>
    <rc><c>C </c><c>   4</c></rc>
    <rc><c>C </c><c>   4</c></rc>
    <rc><c>C </c><c>   4</c></rc>
    <rc><c>C </c><c>   4</c></rc>
    <rc><c>C </c><c>   4</c></rc>
    <rc><c>C </c><c>   4</c></rc>
    <rc><c>C </c><c>   4</c></rc>
    <rc><c>C </c><c>   4</c></rc>
    <rc><c>C </c><c>   4</c></rc>
    <rc><c>C </c><c>   4</c></rc>
    <rc><c>C </c><c>   4</c></rc>
    <rc><c>C </c><c>   4</c></rc>
    <rc><c>C </c><c>   4</c></rc>
    <rc><c>C </c><c>   4</c></rc>
[...]
   <v>       0.85271000       0.62242000       0.20645000 </v>
   <v>       0.83007000       0.66462000       0.20570000 </v>
   <v>       0.42065000       0.18928000       0.20353000 </v>
   <v>       0.45961000       0.21570000       0.20463000 </v>
   <v>       0.90208000       0.62156000       0.20578000 </v>
   <v>       0.42492000       0.04538000       0.19862000 </v>
   <v>       0.97431000       0.66213000       0.20309000 </v>
   <v>       0.99763000       0.62073000       0.20034000 </v>
   <v>       0.14534000       0.62864000       0.21034000 </v>
   <v>       0.19186000       0.63010000       0.20660000 </v>
   <v>       0.21339000       0.66304000       0.18065000 </v>
   <v>       0.18646000       0.69340000       0.15669000 </v>
   <v>       0.13980000       0.69218000       0.16021000 </v>
   <v>       0.41900000       0.89762000       0.20890000 </v>
   <v>       0.41715000       0.85146000       0.20538000 </v>
   <v>       0.38293000       0.82993000       0.18063000 </v>
   <v>       0.35198000       0.85678000       0.15718000 </v>
   <v>       0.35367000       0.90301000       0.16034000 </v>
   <v>       0.11903000       0.66044000       0.18812000 </v>
   <v>       0.38640000       0.92387000       0.18750000 </v>
   <v>       0.04931000       0.70203000       0.20274000 </v>
   <v>       0.04718000       0.61957000       0.19307000 </v>
   <v>       0.42697000       0.99602000       0.19242000 </v>
   <v>       0.34381000       0.99284000       0.20169000 </v>
   <v>       0.99925000       0.70268000       0.20389000 </v>
   <v>       0.97644000       0.74313000       0.20648000 </v>
   <v>       0.92944000       0.74427000       0.20737000 </v>
   <v>       0.92649000       0.58156000       0.20531000 </v>
   <v>       0.97341000       0.58106000       0.20215000 </v>
   <v>       0.45755000       0.26225000       0.20454000 </v>
   <v>       0.04771000       0.75786000       0.31847000 </v>
   <v>       0.29416000       0.25626000       0.20068000 </v>
   <v>       0.33633000       0.18625000       0.20319000 </v>
   <v>       0.54316000       0.66364000       0.18120000 </v>
   <v>       0.38100000       0.18646000       0.32055000 </v>
   <v>       0.47049000       0.70245000       0.16911000 </v>
   <v>       0.49227000       0.74159000       0.14946000 </v>
   <v>       0.46123000       0.77466000       0.14988000 </v>
   <v>       0.42031000       0.75588000       0.16959000 </v>
   <v>       0.38042000       0.78024000       0.17958000 </v>
   <v>       0.33843000       0.75951000       0.18903000 </v>
   <v>       0.29694000       0.77940000       0.20370000 </v>
   <v>       0.47183000       0.62083000       0.18958000 </v>
   <v>       0.26438000       0.74693000       0.20361000 </v>
   <v>       0.26350000       0.66448000       0.17925000 </v>
   <v>       0.28615000       0.62369000       0.16970000 </v>
   <v>       0.26455000       0.58406000       0.15045000 </v>
   <v>       0.29558000       0.55100000       0.15131000 </v>
   <v>       0.33636000       0.57026000       0.17086000 </v>
   <v>       0.37421000       0.49651000       0.18188000 </v>
   <v>       0.37628000       0.54620000       0.18089000 </v>
   <v>       0.08938000       0.82918000       0.31456000 </v>
   <v>       0.04772000       0.90058000       0.31224000 </v>
   <v>       0.28470000       0.70591000       0.18887000 </v>
   <v>       0.49209000       0.58019000       0.20478000 </v>
   <v>       0.45958000       0.54769000       0.20514000 </v>
   <v>       0.41817000       0.56720000       0.19024000 </v>
   <v>       0.37765000       0.21100000       0.20265000 </v>
   <v>       0.70910000       0.70799000       0.19515000 </v>
   <v>       0.75867000       0.70684000       0.20201000 </v>
   <v>       0.78200000       0.66545000       0.20421000 </v>
   <v>       0.75704000       0.62492000       0.20501000 </v>
   <v>       0.70699000       0.62562000       0.20440000 </v>
   <v>       0.41472000       0.33384000       0.20226000 </v>
   <v>       0.41631000       0.28418000       0.20245000 </v>
   <v>       0.37591000       0.25865000       0.20136000 </v>
   <v>       0.33373000       0.28110000       0.19925000 </v>
   <v>       0.33159000       0.33037000       0.19326000 </v>
   <v>       0.57058000       0.63291000       0.15773000 </v>
   <v>       0.61716000       0.63448000       0.16169000 </v>
   <v>       0.63735000       0.66687000       0.18960000 </v>
   <v>       0.61053000       0.69900000       0.21132000 </v>
   <v>       0.56409000       0.69724000       0.20708000 </v>
   <v>       0.40563000       0.46969000       0.15843000 </v>
   <v>       0.40448000       0.42348000       0.16156000 </v>
   <v>       0.37182000       0.40260000       0.18868000 </v>
   <v>       0.33879000       0.42877000       0.21011000 </v>
   <v>       0.34010000       0.47491000       0.20663000 </v>
   <v>       0.29552000       0.20977000       0.20306000 </v>
   <v>       0.63098000       0.61504000       0.31983000 </v>
   <v>       0.04774000       0.99584000       0.30999000 </v>
   <v>       0.54762000       0.75787000       0.32037000 </v>
   <v>       0.67264000       0.78167000       0.32051000 </v>
   <v>       0.63097000       0.85306000       0.31815000 </v>
   <v>       0.58929000       0.92449000       0.31659000 </v>
   <v>       0.54760000       0.99592000       0.31592000 </v>
   <v>       0.50595000       0.06737000       0.31655000 </v>
   <v>       0.46431000       0.13883000       0.31847000 </v>
   <v>       0.42267000       0.21027000       0.32001000 </v>
   <v>       0.38102000       0.28170000       0.32011000 </v>
   <v>       0.67263000       0.63883000       0.32136000 </v>
   <v>       0.63095000       0.71026000       0.32261000 </v>
   <v>       0.58930000       0.78168000       0.32072000 </v>
   <v>       0.54763000       0.85309000       0.31904000 </v>
   <v>       0.50596000       0.92452000       0.31868000 </v>
   <v>       0.46430000       0.99596000       0.31843000 </v>
   <v>       0.42264000       0.06740000       0.31934000 </v>
   <v>       0.38099000       0.13883000       0.32044000 </v>
   <v>       0.33934000       0.21026000       0.32012000 </v>
   <v>       0.58931000       0.63883000       0.32006000 </v>
   <v>       0.54760000       0.71024000       0.32060000 </v>
   <v>       0.50597000       0.78165000       0.31904000 </v>
   <v>       0.46430000       0.85309000       0.31962000 </v>
   <v>       0.42261000       0.92454000       0.31997000 </v>
   <v>       0.38096000       0.99596000       0.31928000 </v>
   <v>       0.33930000       0.06739000       0.31959000 </v>
   <v>       0.29766000       0.13883000       0.31894000 </v>
   <v>       0.71431000       0.71027000       0.32221000 </v>
   <v>       0.42269000       0.35314000       0.31906000 </v>
   <v>       0.46434000       0.28171000       0.31826000 </v>
   <v>       0.50597000       0.21025000       0.31656000 </v>
   <v>       0.67263000       0.35316000       0.31110000 </v>
   <v>       0.63097000       0.42460000       0.31305000 </v>
   <v>       0.58932000       0.49603000       0.31524000 </v>
   <v>       0.88101000       0.85301000       0.31566000 </v>
   <v>       0.58927000       0.68643000       0.32174000 </v>
   <v>       0.79765000       0.99583000       0.31063000 </v>
   <v>       0.75597000       0.06728000       0.30952000 </v>
   <v>       0.71429000       0.13875000       0.30931000 </v>
   <v>       0.67261000       0.21022000       0.30996000 </v>
   <v>       0.63094000       0.28168000       0.31125000 </v>
   <v>       0.58928000       0.35313000       0.31284000 </v>
   <v>       0.54762000       0.42457000       0.31452000 </v>
   <v>       0.54767000       0.56743000       0.31722000 </v>
   <v>       0.79766000       0.85301000       0.31623000 </v>
   <v>       0.71429000       0.99585000       0.31182000 </v>
   <v>       0.67261000       0.06730000       0.31105000 </v>
   <v>       0.63093000       0.13877000       0.31133000 </v>
   <v>       0.58926000       0.21023000       0.31257000 </v>
   <v>       0.54761000       0.28169000       0.31430000 </v>
   <v>       0.50596000       0.35313000       0.31582000 </v>
   <v>       0.75599000       0.78165000       0.31995000 </v>
   <v>       0.71431000       0.85303000       0.31699000 </v>
   <v>       0.67263000       0.92444000       0.31484000 </v>
   <v>       0.63094000       0.99588000       0.31358000 </v>
   <v>       0.58926000       0.06733000       0.31337000 </v>
   <v>       0.54760000       0.13879000       0.31451000 </v>
   <v>       0.75598000       0.92441000       0.31352000 </v>
   <v>       0.50599000       0.63884000       0.31757000 </v>
   <v>       0.46434000       0.71023000       0.31657000 </v>
   <v>       0.42267000       0.78165000       0.31702000 </v>
   <v>       0.08940000       0.92440000       0.31166000 </v>
   <v>       0.33937000       0.35313000       0.32015000 </v>
   <v>       0.29769000       0.42458000       0.32082000 </v>
   <v>       0.25605000       0.49601000       0.31980000 </v>
   <v>       0.21440000       0.56744000       0.31997000 </v>
   <v>       0.17275000       0.63889000       0.32085000 </v>
   <v>       0.13105000       0.71026000       0.31882000 </v>
   <v>       0.08937000       0.78160000       0.31653000 </v>
   <v>       0.29770000       0.28170000       0.31882000 </v>
   <v>       0.25605000       0.35313000       0.31831000 </v>
   <v>       0.21439000       0.42457000       0.31849000 </v>
   <v>       0.17272000       0.49601000       0.31905000 </v>
   <v>       0.13105000       0.85299000       0.31360000 </v>
   <v>       0.13104000       0.56744000       0.32087000 </v>
   <v>       0.25605000       0.21025000       0.31707000 </v>
   <v>       0.21443000       0.28170000       0.31557000 </v>
   <v>       0.17276000       0.35314000       0.31542000 </v>
   <v>       0.13107000       0.42459000       0.31617000 </v>
   <v>       0.08939000       0.49604000       0.31774000 </v>
   <v>       0.17278000       0.21025000       0.31318000 </v>
   <v>       0.13112000       0.28170000       0.31255000 </v>
   <v>       0.08943000       0.35316000       0.31298000 </v>
   <v>       0.13112000       0.13878000       0.31122000 </v>
   <v>       0.08946000       0.21024000       0.31037000 </v>
   <v>       0.08944000       0.06731000       0.30999000 </v>
   <v>       0.08942000       0.97204000       0.31079000 </v>
   <v>       0.08938000       0.63889000       0.32132000 </v>
   <v>       0.71430000       0.28169000       0.30951000 </v>
   <v>       0.17270000       0.78160000       0.31570000 </v>
   <v>       0.25606000       0.63882000       0.31756000 </v>
   <v>       0.38098000       0.85308000       0.31828000 </v>
   <v>       0.33933000       0.92451000       0.31788000 </v>
   <v>       0.29766000       0.99594000       0.31745000 </v>
   <v>       0.25602000       0.06736000       0.31659000 </v>
   <v>       0.21441000       0.13880000       0.31481000 </v>
   <v>       0.50598000       0.49600000       0.31626000 </v>
   <v>       0.46433000       0.56742000       0.31695000 </v>
   <v>       0.42269000       0.63881000       0.31506000 </v>
   <v>       0.38104000       0.71022000       0.31448000 </v>
   <v>       0.33938000       0.78164000       0.31585000 </v>
   <v>       0.29771000       0.85307000       0.31592000 </v>
   <v>       0.25607000       0.92449000       0.31500000 </v>
   <v>       0.21438000       0.71022000       0.31730000 </v>
   <v>       0.21442000       0.99590000       0.31399000 </v>
   <v>       0.46432000       0.42456000       0.31703000 </v>
   <v>       0.42267000       0.49599000       0.31779000 </v>
   <v>       0.38102000       0.56740000       0.31644000 </v>
   <v>       0.33936000       0.63879000       0.31482000 </v>
   <v>       0.29772000       0.71020000       0.31539000 </v>
   <v>       0.25605000       0.78163000       0.31586000 </v>
   <v>       0.21440000       0.85303000       0.31431000 </v>
   <v>       0.17275000       0.92444000       0.31275000 </v>
   <v>       0.13110000       0.99587000       0.31132000 </v>
   <v>       0.38105000       0.42457000       0.31995000 </v>
   <v>       0.33939000       0.49602000       0.31971000 </v>
   <v>       0.29772000       0.56741000       0.31772000 </v>
   <v>       0.17277000       0.06734000       0.31262000 </v>
   <v>       0.75598000       0.21022000       0.30847000 </v>
   <v>       0.83933000       0.92439000       0.31263000 </v>
   <v>       0.21442000       0.18644000       0.31495000 </v>
   <v>       0.42268000       0.40076000       0.31866000 </v>
   <v>       0.38104000       0.47220000       0.31930000 </v>
   <v>       0.33937000       0.54361000       0.31779000 </v>
   <v>       0.29771000       0.61501000       0.31639000 </v>
   <v>       0.25605000       0.68642000       0.31664000 </v>
   <v>       0.21437000       0.75782000       0.31621000 </v>
   <v>       0.17272000       0.82920000       0.31436000 </v>
   <v>       0.13107000       0.90061000       0.31247000 </v>
   <v>       0.38104000       0.32933000       0.31991000 </v>
   <v>       0.33939000       0.40076000       0.32082000 </v>
   <v>       0.29771000       0.47221000       0.32051000 </v>
   <v>       0.25606000       0.54363000       0.31916000 </v>
   <v>       0.21442000       0.61507000       0.31988000 </v>
   <v>       0.17272000       0.68647000       0.31908000 </v>
   <v>       0.13103000       0.75782000       0.31687000 </v>
   <v>       0.33935000       0.25789000       0.31990000 </v>
   <v>       0.29770000       0.32932000       0.31916000 </v>
   <v>       0.25604000       0.40076000       0.31936000 </v>
   <v>       0.21438000       0.47220000       0.31924000 </v>
   <v>       0.17272000       0.54364000       0.32020000 </v>
   <v>       0.13106000       0.61508000       0.32168000 </v>
   <v>       0.29767000       0.18645000       0.31896000 </v>
   <v>       0.25606000       0.25789000       0.31716000 </v>
   <v>       0.21442000       0.32933000       0.31633000 </v>
   <v>       0.17274000       0.40077000       0.31666000 </v>
   <v>       0.13105000       0.47222000       0.31769000 </v>
   <v>       0.79766000       0.13874000       0.30816000 </v>
   <v>       0.17276000       0.97208000       0.31250000 </v>
   <v>       0.21442000       0.90066000       0.31383000 </v>
   <v>       0.25605000       0.82924000       0.31525000 </v>
   <v>       0.29772000       0.75782000       0.31577000 </v>
   <v>       0.50596000       0.82928000       0.31933000 </v>
   <v>       0.46430000       0.90072000       0.31992000 </v>
   <v>       0.42263000       0.97216000       0.31940000 </v>
   <v>       0.38097000       0.04359000       0.31963000 </v>
   <v>       0.33932000       0.11502000       0.32003000 </v>
   <v>       0.58934000       0.54365000       0.31666000 </v>
   <v>       0.54765000       0.61505000       0.31831000 </v>
   <v>       0.50598000       0.68645000       0.31822000 </v>
   <v>       0.46433000       0.75785000       0.31745000 </v>
   <v>       0.42263000       0.82926000       0.31873000 </v>
   <v>       0.38095000       0.90071000       0.31908000 </v>
   <v>       0.33931000       0.97213000       0.31846000 </v>
   <v>       0.29766000       0.04356000       0.31817000 </v>
   <v>       0.17278000       0.25789000       0.31363000 </v>
   <v>       0.25603000       0.11500000       0.31692000 </v>
   <v>       0.50600000       0.54362000       0.31694000 </v>
   <v>       0.46434000       0.61503000       0.31639000 </v>
   <v>       0.42270000       0.68643000       0.31490000 </v>
   <v>       0.38103000       0.75784000       0.31554000 </v>
   <v>       0.33936000       0.82926000       0.31666000 </v>
   <v>       0.29770000       0.90070000       0.31620000 </v>
   <v>       0.25606000       0.97211000       0.31546000 </v>
   <v>       0.21441000       0.04354000       0.31434000 </v>
   <v>       0.50596000       0.40075000       0.31563000 </v>
   <v>       0.46432000       0.47218000       0.31694000 </v>
   <v>       0.42267000       0.54361000       0.31704000 </v>
   <v>       0.38103000       0.61499000       0.31499000 </v>
   <v>       0.33937000       0.68641000       0.31448000 </v>
   <v>       0.54765000       0.47220000       0.31518000 </v>
   <v>       0.13111000       0.32934000       0.31353000 </v>
   <v>       0.63097000       0.75790000       0.32172000 </v>
   <v>       0.13112000       0.18643000       0.31145000 </v>
   <v>       0.79767000       0.71028000       0.32273000 </v>
   <v>       0.04777000       0.13877000       0.30902000 </v>
   <v>       0.00610000       0.21024000       0.30865000 </v>
   <v>       0.96441000       0.28171000       0.30902000 </v>
   <v>       0.92273000       0.35318000       0.31029000 </v>
   <v>       0.17277000       0.11498000       0.31276000 </v>
   <v>       0.71433000       0.42463000       0.31252000 </v>
   <v>       0.75600000       0.35317000       0.31027000 </v>
   <v>       0.88104000       0.42464000       0.31259000 </v>
   <v>       0.83935000       0.49606000       0.31615000 </v>
   <v>       0.79766000       0.56742000       0.32038000 </v>
   <v>       0.75598000       0.63883000       0.32253000 </v>
   <v>       0.00608000       0.06729000       0.30870000 </v>
   <v>       0.96441000       0.13876000       0.30794000 </v>
   <v>       0.92273000       0.21023000       0.30783000 </v>
   <v>       0.88105000       0.28171000       0.30848000 </v>
   <v>       0.83936000       0.35318000       0.31000000 </v>
   <v>       0.79768000       0.42464000       0.31245000 </v>
   <v>       0.79767000       0.28170000       0.30866000 </v>
   <v>       0.83935000       0.21022000       0.30779000 </v>
   <v>       0.75601000       0.49606000       0.31577000 </v>
   <v>       0.71432000       0.56743000       0.31914000 </v>
   <v>       0.96438000       0.99582000       0.30966000 </v>
   <v>       0.83933000       0.63885000       0.32326000 </v>
   <v>       0.88103000       0.13875000       0.30771000 </v>
   <v>       0.88101000       0.56744000       0.32039000 </v>
   <v>       0.96440000       0.42464000       0.31311000 </v>
   <v>       0.13111000       0.04351000       0.31114000 </v>
   <v>       0.04771000       0.85298000       0.31400000 </v>
   <v>       0.00605000       0.92439000       0.31158000 </v>
   <v>       0.04771000       0.71029000       0.32033000 </v>
   <v>       0.00604000       0.78165000       0.31821000 </v>
   <v>       0.83934000       0.06728000       0.30865000 </v>
   <v>       0.96436000       0.85300000       0.31492000 </v>
   <v>       0.04771000       0.56745000       0.31986000 </v>
   <v>       0.88102000       0.99582000       0.30993000 </v>
   <v>       0.00602000       0.63888000       0.32164000 </v>
   <v>       0.92269000       0.92439000       0.31200000 </v>
   <v>       0.92270000       0.49607000       0.31623000 </v>
   <v>       0.63100000       0.56745000       0.31781000 </v>
   <v>       0.96436000       0.71030000       0.32205000 </v>
   <v>       0.92269000       0.78168000       0.31953000 </v>
   <v>       0.04774000       0.42462000       0.31429000 </v>
   <v>       0.00605000       0.49606000       0.31659000 </v>
   <v>       0.96436000       0.56746000       0.31994000 </v>
   <v>       0.92268000       0.63887000       0.32280000 </v>
   <v>       0.88101000       0.71030000       0.32292000 </v>
   <v>       0.83934000       0.78167000       0.31994000 </v>
   <v>       0.04777000       0.28171000       0.31037000 </v>
   <v>       0.00609000       0.35318000       0.31125000 </v>
   <v>       0.67266000       0.49606000       0.31520000 </v>
   <v>       0.92271000       0.06728000       0.30836000 </v>
  </varray>
 </structure>
</modeling>
