  10  10   1   0
  0.2762684E+02  0.7310528E-09  0.7310528E-09  0.7310528E-09  0.5000000E-15
  1.000000000000000E-004
  CAR 
 unknown system                          
     10.40595914    -19.28756662  301      1.70499739      1.00000000
    -19.288  0.0000E+00  0.0000E+00  0.0000E+00  0.0000E+00
    -19.189  0.0000E+00  0.0000E+00  0.0000E+00  0.0000E+00
    -19.090  0.0000E+00  0.0000E+00  0.0000E+00  0.0000E+00
    -18.991  0.0000E+00  0.0000E+00  0.0000E+00  0.0000E+00
    -18.892  0.0000E+00  0.0000E+00  0.0000E+00  0.0000E+00
    -18.793  0.0000E+00  0.0000E+00  0.0000E+00  0.0000E+00
    -18.694  0.0000E+00  0.0000E+00  0.0000E+00  0.0000E+00
    -18.595  0.0000E+00  0.0000E+00  0.0000E+00  0.0000E+00
    -18.496  0.0000E+00  0.0000E+00  0.0000E+00  0.0000E+00
    -18.397  0.0000E+00  0.0000E+00  0.0000E+00  0.0000E+00
    -18.298  0.0000E+00  0.0000E+00  0.0000E+00  0.0000E+00
    -18.199  0.0000E+00  0.0000E+00  0.0000E+00  0.0000E+00
    -18.100  0.0000E+00  0.0000E+00  0.0000E+00  0.0000E+00
    -18.001  0.0000E+00  0.0000E+00  0.0000E+00  0.0000E+00
    -17.902  0.0000E+00  0.0000E+00  0.2000E+01  0.2000E+01
    -17.803  0.0000E+00  0.0000E+00  0.2000E+01  0.2000E+01
    -17.704  0.0000E+00  0.0000E+00  0.2000E+01  0.2000E+01
    -17.605  0.0000E+00  0.0000E+00  0.2000E+01  0.2000E+01
    -17.506  0.0000E+00  0.0000E+00  0.2000E+01  0.2000E+01
    -17.407  0.0000E+00  0.0000E+00  0.2000E+01  0.2000E+01
    -17.308  0.0000E+00  0.0000E+00  0.2000E+01  0.2000E+01
    -17.209  0.0000E+00  0.0000E+00  0.2000E+01  0.2000E+01
    -17.110  0.0000E+00  0.0000E+00  0.2000E+01  0.2000E+01
    -17.011  0.0000E+00  0.0000E+00  0.2000E+01  0.2000E+01
    -16.912  0.0000E+00  0.0000E+00  0.2000E+01  0.2000E+01
    -16.813  0.0000E+00  0.0000E+00  0.2000E+01  0.2000E+01
    -16.714  0.0000E+00  0.0000E+00  0.2000E+01  0.2000E+01
    -16.615  0.0000E+00  0.0000E+00  0.2000E+01  0.2000E+01
    -16.516  0.0000E+00  0.0000E+00  0.2000E+01  0.2000E+01
    -16.417  0.0000E+00  0.0000E+00  0.2000E+01  0.2000E+01
    -16.318  0.0000E+00  0.0000E+00  0.2000E+01  0.2000E+01
    -16.219  0.0000E+00  0.0000E+00  0.2000E+01  0.2000E+01
    -16.120  0.0000E+00  0.0000E+00  0.2000E+01  0.2000E+01
    -16.021  0.0000E+00  0.0000E+00  0.2000E+01  0.2000E+01
    -15.922  0.0000E+00  0.0000E+00  0.2000E+01  0.2000E+01
    -15.823  0.0000E+00  0.0000E+00  0.2000E+01  0.2000E+01
    -15.724  0.0000E+00  0.0000E+00  0.2000E+01  0.2000E+01
    -15.625  0.0000E+00  0.0000E+00  0.2000E+01  0.2000E+01
    -15.526  0.0000E+00  0.0000E+00  0.2000E+01  0.2000E+01
    -15.427  0.0000E+00  0.0000E+00  0.2000E+01  0.2000E+01
    -15.328  0.0000E+00  0.0000E+00  0.2000E+01  0.2000E+01
    -15.229  0.0000E+00  0.0000E+00  0.2000E+01  0.2000E+01
    -15.130  0.0000E+00  0.0000E+00  0.2000E+01  0.2000E+01
    -15.031  0.0000E+00  0.0000E+00  0.2000E+01  0.2000E+01
    -14.933  0.0000E+00  0.0000E+00  0.2000E+01  0.2000E+01
    -14.834  0.0000E+00  0.0000E+00  0.2000E+01  0.2000E+01
    -14.735  0.0000E+00  0.0000E+00  0.2000E+01  0.2000E+01
    -14.636  0.0000E+00  0.0000E+00  0.2000E+01  0.2000E+01
    -14.537  0.0000E+00  0.0000E+00  0.2000E+01  0.2000E+01
    -14.438  0.0000E+00  0.0000E+00  0.2000E+01  0.2000E+01
    -14.339  0.0000E+00  0.0000E+00  0.2000E+01  0.2000E+01
    -14.240  0.0000E+00  0.0000E+00  0.2000E+01  0.2000E+01
    -14.141  0.0000E+00  0.0000E+00  0.2000E+01  0.2000E+01
    -14.042  0.0000E+00  0.0000E+00  0.2000E+01  0.2000E+01
    -13.943  0.0000E+00  0.0000E+00  0.2000E+01  0.2000E+01
    -13.844  0.0000E+00  0.0000E+00  0.2000E+01  0.2000E+01
    -13.745  0.0000E+00  0.0000E+00  0.2000E+01  0.2000E+01
    -13.646  0.0000E+00  0.0000E+00  0.2000E+01  0.2000E+01
    -13.547  0.0000E+00  0.0000E+00  0.2000E+01  0.2000E+01
    -13.448  0.0000E+00  0.0000E+00  0.2000E+01  0.2000E+01
    -13.349  0.0000E+00  0.0000E+00  0.2000E+01  0.2000E+01
    -13.250  0.0000E+00  0.0000E+00  0.2000E+01  0.2000E+01
    -13.151  0.0000E+00  0.0000E+00  0.2000E+01  0.2000E+01
    -13.052  0.0000E+00  0.0000E+00  0.2000E+01  0.2000E+01
    -12.953  0.0000E+00  0.0000E+00  0.2000E+01  0.2000E+01
    -12.854  0.0000E+00  0.0000E+00  0.2000E+01  0.2000E+01
    -12.755  0.0000E+00  0.0000E+00  0.2000E+01  0.2016E+01
    -12.656  0.0000E+00  0.0000E+00  0.2234E+01  0.2250E+01
    -12.557  0.0000E+00  0.0000E+00  0.2594E+01  0.3094E+01
    -12.458  0.0000E+00  0.0000E+00  0.3156E+01  0.3719E+01
    -12.359  0.0000E+00  0.0000E+00  0.3750E+01  0.3953E+01
    -12.260  0.0000E+00  0.3157E+00  0.3984E+01  0.6094E+01
    -12.161  0.1205E-10  0.0000E+00  0.7125E+01  0.8000E+01
    -12.062  0.0000E+00  0.0000E+00  0.8000E+01  0.8000E+01
    -11.963  0.0000E+00  0.0000E+00  0.8000E+01  0.8000E+01
    -11.864  0.0000E+00  0.0000E+00  0.8000E+01  0.8000E+01
    -11.765  0.0000E+00  0.0000E+00  0.8000E+01  0.8000E+01
    -11.666  0.0000E+00  0.0000E+00  0.8000E+01  0.8000E+01
    -11.567  0.0000E+00  0.0000E+00  0.8000E+01  0.8000E+01
    -11.468  0.0000E+00  0.0000E+00  0.8000E+01  0.8000E+01
    -11.369  0.0000E+00  0.0000E+00  0.8000E+01  0.8000E+01
    -11.270  0.0000E+00  0.0000E+00  0.8000E+01  0.8000E+01
    -11.171  0.0000E+00  0.0000E+00  0.8000E+01  0.8000E+01
    -11.072  0.0000E+00  0.0000E+00  0.8000E+01  0.8000E+01
    -10.973  0.0000E+00  0.0000E+00  0.8000E+01  0.8000E+01
    -10.874  0.0000E+00  0.0000E+00  0.8000E+01  0.8000E+01
    -10.775  0.0000E+00  0.0000E+00  0.8000E+01  0.8000E+01
    -10.676  0.0000E+00  0.0000E+00  0.8000E+01  0.8000E+01
    -10.577  0.0000E+00  0.0000E+00  0.8000E+01  0.8000E+01
    -10.478  0.0000E+00  0.0000E+00  0.8000E+01  0.8000E+01
    -10.380  0.0000E+00  0.0000E+00  0.8000E+01  0.8000E+01
    -10.281  0.0000E+00  0.0000E+00  0.8000E+01  0.8000E+01
    -10.182  0.0000E+00  0.0000E+00  0.8000E+01  0.8000E+01
    -10.083  0.0000E+00  0.0000E+00  0.8000E+01  0.8000E+01
     -9.984  0.0000E+00  0.0000E+00  0.8000E+01  0.8000E+01
     -9.885  0.0000E+00  0.0000E+00  0.8000E+01  0.8000E+01
     -9.786  0.0000E+00  0.0000E+00  0.8000E+01  0.8000E+01
     -9.687  0.0000E+00  0.0000E+00  0.8000E+01  0.8000E+01
     -9.588  0.0000E+00  0.0000E+00  0.8000E+01  0.8000E+01
     -9.489  0.0000E+00  0.0000E+00  0.8000E+01  0.8000E+01
     -9.390  0.0000E+00  0.0000E+00  0.8000E+01  0.8000E+01
     -9.291  0.0000E+00  0.0000E+00  0.8000E+01  0.8000E+01
     -9.192  0.0000E+00  0.0000E+00  0.8000E+01  0.8000E+01
     -9.093  0.0000E+00  0.0000E+00  0.8000E+01  0.8000E+01
     -8.994  0.0000E+00  0.0000E+00  0.8000E+01  0.8000E+01
     -8.895  0.0000E+00  0.0000E+00  0.8000E+01  0.8000E+01
     -8.796  0.0000E+00  0.0000E+00  0.8000E+01  0.8000E+01
     -8.697  0.0000E+00  0.0000E+00  0.8000E+01  0.8000E+01
     -8.598  0.0000E+00  0.0000E+00  0.8000E+01  0.8000E+01
     -8.499  0.0000E+00  0.0000E+00  0.8000E+01  0.8000E+01
     -8.400  0.0000E+00  0.0000E+00  0.8000E+01  0.8000E+01
     -8.301  0.0000E+00  0.0000E+00  0.8000E+01  0.8000E+01
     -8.202  0.0000E+00  0.0000E+00  0.8000E+01  0.8000E+01
     -8.103  0.0000E+00  0.0000E+00  0.8000E+01  0.8000E+01
     -8.004  0.0000E+00  0.0000E+00  0.8000E+01  0.8000E+01
     -7.905  0.0000E+00  0.0000E+00  0.8000E+01  0.8000E+01
     -7.806  0.0000E+00  0.0000E+00  0.8000E+01  0.8000E+01
     -7.707  0.0000E+00  0.0000E+00  0.8000E+01  0.8000E+01
     -7.608  0.0000E+00  0.0000E+00  0.8000E+01  0.8000E+01
     -7.509  0.0000E+00  0.0000E+00  0.8000E+01  0.8000E+01
     -7.410  0.0000E+00  0.0000E+00  0.8000E+01  0.8000E+01
     -7.311  0.0000E+00  0.0000E+00  0.8000E+01  0.8000E+01
     -7.212  0.0000E+00  0.0000E+00  0.8000E+01  0.8000E+01
     -7.113  0.0000E+00  0.0000E+00  0.8000E+01  0.8000E+01
     -7.014  0.0000E+00  0.0000E+00  0.8000E+01  0.8000E+01
     -6.915  0.0000E+00  0.0000E+00  0.8000E+01  0.8000E+01
     -6.816  0.0000E+00  0.0000E+00  0.8000E+01  0.8000E+01
     -6.717  0.0000E+00  0.0000E+00  0.8000E+01  0.8000E+01
     -6.618  0.0000E+00  0.0000E+00  0.8000E+01  0.8000E+01
     -6.519  0.0000E+00  0.0000E+00  0.8000E+01  0.8000E+01
     -6.420  0.0000E+00  0.0000E+00  0.8000E+01  0.8000E+01
     -6.321  0.0000E+00  0.0000E+00  0.8000E+01  0.8000E+01
     -6.222  0.0000E+00  0.0000E+00  0.8000E+01  0.8000E+01
     -6.123  0.0000E+00  0.0000E+00  0.8000E+01  0.8000E+01
     -6.024  0.0000E+00  0.0000E+00  0.8000E+01  0.8000E+01
     -5.925  0.0000E+00  0.0000E+00  0.8000E+01  0.8000E+01
     -5.827  0.0000E+00  0.0000E+00  0.8000E+01  0.8000E+01
     -5.728  0.0000E+00  0.0000E+00  0.8000E+01  0.8000E+01
     -5.629  0.0000E+00  0.0000E+00  0.8000E+01  0.8000E+01
     -5.530  0.0000E+00  0.0000E+00  0.8000E+01  0.8000E+01
     -5.431  0.0000E+00  0.0000E+00  0.8000E+01  0.8000E+01
     -5.332  0.0000E+00  0.0000E+00  0.8000E+01  0.8000E+01
     -5.233  0.0000E+00  0.0000E+00  0.8000E+01  0.8000E+01
     -5.134  0.0000E+00  0.0000E+00  0.8000E+01  0.8000E+01
     -5.035  0.0000E+00  0.0000E+00  0.8047E+01  0.8047E+01
     -4.936  0.1263E+01  0.0000E+00  0.8922E+01  0.8922E+01
     -4.837  0.0000E+00  0.0000E+00  0.1192E+02  0.1192E+02
     -4.738  0.0000E+00  0.0000E+00  0.1395E+02  0.1405E+02
     -4.639  0.0000E+00  0.0000E+00  0.1488E+02  0.1566E+02
     -4.540  0.0000E+00  0.0000E+00  0.1600E+02  0.1600E+02
     -4.441  0.0000E+00  0.0000E+00  0.1600E+02  0.1600E+02
     -4.342  0.0000E+00  0.0000E+00  0.1600E+02  0.1600E+02
     -4.243  0.0000E+00  0.0000E+00  0.1600E+02  0.1602E+02
     -4.144  0.0000E+00  0.3144E+01  0.1688E+02  0.1731E+02
     -4.045  0.0000E+00  0.0000E+00  0.1902E+02  0.1902E+02
     -3.946  0.0000E+00  0.0000E+00  0.1914E+02  0.1928E+02
     -3.847  0.0000E+00  0.0000E+00  0.1928E+02  0.1938E+02
     -3.748  0.0000E+00  0.0000E+00  0.1962E+02  0.1975E+02
     -3.649  0.0000E+00  0.0000E+00  0.1994E+02  0.1994E+02
     -3.550  0.0000E+00  0.0000E+00  0.1994E+02  0.1994E+02
     -3.451  0.0000E+00  0.0000E+00  0.2000E+02  0.2000E+02
     -3.352  0.0000E+00  0.0000E+00  0.2000E+02  0.2000E+02
     -3.253  0.0000E+00  0.0000E+00  0.2000E+02  0.2000E+02
     -3.154  0.0000E+00  0.0000E+00  0.2000E+02  0.2000E+02
     -3.055  0.0000E+00  0.0000E+00  0.2000E+02  0.2000E+02
     -2.956  0.0000E+00  0.0000E+00  0.2000E+02  0.2000E+02
     -2.857  0.0000E+00  0.0000E+00  0.2000E+02  0.2069E+02
     -2.758  0.0000E+00  0.0000E+00  0.2050E+02  0.2075E+02
     -2.659  0.0000E+00  0.0000E+00  0.2075E+02  0.2088E+02
     -2.560  0.0000E+00  0.0000E+00  0.2075E+02  0.2138E+02
     -2.461  0.0000E+00  0.0000E+00  0.2138E+02  0.2138E+02
     -2.362  0.0000E+00  0.0000E+00  0.2138E+02  0.2175E+02
     -2.263  0.0000E+00  0.0000E+00  0.2175E+02  0.2225E+02
     -2.164  0.0000E+00  0.0000E+00  0.2225E+02  0.2225E+02
     -2.065  0.0000E+00  0.0000E+00  0.2225E+02  0.2242E+02
     -1.966  0.0000E+00  0.0000E+00  0.2225E+02  0.2291E+02
     -1.867  0.0000E+00  0.0000E+00  0.2334E+02  0.2512E+02
     -1.768  0.0000E+00  0.0000E+00  0.2542E+02  0.2569E+02
     -1.669  0.3504E-04  0.0000E+00  0.2569E+02  0.2588E+02
     -1.570  0.0000E+00  0.0000E+00  0.2588E+02  0.2612E+02
     -1.471  0.0000E+00  0.0000E+00  0.2612E+02  0.2645E+02
     -1.372  0.0000E+00  0.0000E+00  0.2645E+02  0.2659E+02
     -1.273  0.0000E+00  0.0000E+00  0.2650E+02  0.2659E+02
     -1.175  0.0000E+00  0.0000E+00  0.2659E+02  0.2659E+02
     -1.076  0.0000E+00  0.0000E+00  0.2659E+02  0.2672E+02
     -0.977  0.0000E+00  0.0000E+00  0.2684E+02  0.2722E+02
     -0.878  0.0000E+00  0.0000E+00  0.2731E+02  0.2731E+02
     -0.779  0.0000E+00  0.0000E+00  0.2731E+02  0.2731E+02
     -0.680  0.0000E+00  0.0000E+00  0.2731E+02  0.2731E+02
     -0.581  0.0000E+00  0.0000E+00  0.2736E+02  0.2773E+02
     -0.482  0.0000E+00  0.0000E+00  0.2780E+02  0.2780E+02
     -0.383  0.0000E+00  0.0000E+00  0.2836E+02  0.2873E+02
     -0.284  0.0000E+00  0.1671E-02  0.2886E+02  0.2928E+02
     -0.185  0.0000E+00  0.3157E+00  0.2961E+02  0.3038E+02
     -0.086  0.0000E+00  0.0000E+00  0.3125E+02  0.3228E+02
      0.013  0.0000E+00  0.0000E+00  0.3312E+02  0.3342E+02
      0.112  0.3096E+00  0.0000E+00  0.3380E+02  0.3462E+02
      0.211  0.0000E+00  0.0000E+00  0.3575E+02  0.3631E+02
      0.310  0.0000E+00  0.0000E+00  0.3650E+02  0.3659E+02
      0.409  0.0000E+00  0.2543E-05  0.3780E+02  0.3817E+02
      0.508  0.0000E+00  0.0000E+00  0.3905E+02  0.3942E+02
      0.607  0.0000E+00  0.1578E+00  0.3955E+02  0.3956E+02
      0.706  0.0000E+00  0.0000E+00  0.3980E+02  0.4042E+02
      0.805  0.0000E+00  0.0000E+00  0.4042E+02  0.4042E+02
      0.904  0.0000E+00  0.0000E+00  0.4042E+02  0.4052E+02
      1.003  0.0000E+00  0.0000E+00  0.4042E+02  0.4052E+02
      1.102  0.0000E+00  0.0000E+00  0.4052E+02  0.4092E+02
      1.201  0.0000E+00  0.0000E+00  0.4067E+02  0.4092E+02
      1.300  0.0000E+00  0.0000E+00  0.4092E+02  0.4092E+02
      1.399  0.0000E+00  0.0000E+00  0.4092E+02  0.4120E+02
      1.498  0.0000E+00  0.0000E+00  0.4092E+02  0.4120E+02
      1.597  0.0000E+00  0.0000E+00  0.4120E+02  0.4120E+02
      1.696  0.0000E+00  0.0000E+00  0.4120E+02  0.4158E+02
      1.795  0.0000E+00  0.0000E+00  0.4120E+02  0.4183E+02
      1.894  0.0000E+00  0.0000E+00  0.4183E+02  0.4183E+02
      1.993  0.0000E+00  0.0000E+00  0.4183E+02  0.4183E+02
      2.092  0.0000E+00  0.0000E+00  0.4183E+02  0.4183E+02
      2.191  0.0000E+00  0.0000E+00  0.4183E+02  0.4200E+02
      2.290  0.0000E+00  0.0000E+00  0.4200E+02  0.4200E+02
      2.389  0.0000E+00  0.0000E+00  0.4200E+02  0.4200E+02
      2.488  0.0000E+00  0.0000E+00  0.4200E+02  0.4200E+02
      2.587  0.0000E+00  0.0000E+00  0.4202E+02  0.4202E+02
      2.686  0.0000E+00  0.0000E+00  0.4202E+02  0.4202E+02
      2.785  0.0000E+00  0.0000E+00  0.4202E+02  0.4202E+02
      2.884  0.0000E+00  0.0000E+00  0.4202E+02  0.4202E+02
      2.983  0.0000E+00  0.0000E+00  0.4202E+02  0.4202E+02
      3.082  0.0000E+00  0.0000E+00  0.4202E+02  0.4202E+02
      3.181  0.0000E+00  0.0000E+00  0.4202E+02  0.4202E+02
      3.280  0.0000E+00  0.0000E+00  0.4202E+02  0.4202E+02
      3.378  0.0000E+00  0.0000E+00  0.4214E+02  0.4214E+02
      3.477  0.0000E+00  0.0000E+00  0.4214E+02  0.4214E+02
      3.576  0.0000E+00  0.0000E+00  0.4214E+02  0.4214E+02
      3.675  0.0000E+00  0.0000E+00  0.4214E+02  0.4214E+02
      3.774  0.0000E+00  0.0000E+00  0.4223E+02  0.4223E+02
      3.873  0.0000E+00  0.0000E+00  0.4223E+02  0.4223E+02
      3.972  0.0000E+00  0.0000E+00  0.4223E+02  0.4223E+02
      4.071  0.0000E+00  0.0000E+00  0.4223E+02  0.4223E+02
      4.170  0.0000E+00  0.0000E+00  0.4223E+02  0.4230E+02
      4.269  0.0000E+00  0.0000E+00  0.4230E+02  0.4248E+02
      4.368  0.0000E+00  0.0000E+00  0.4248E+02  0.4248E+02
      4.467  0.0000E+00  0.0000E+00  0.4248E+02  0.4248E+02
      4.566  0.0000E+00  0.0000E+00  0.4248E+02  0.4248E+02
      4.665  0.0000E+00  0.0000E+00  0.4248E+02  0.4286E+02
      4.764  0.0000E+00  0.0000E+00  0.4286E+02  0.4286E+02
      4.863  0.0000E+00  0.0000E+00  0.4286E+02  0.4286E+02
      4.962  0.0000E+00  0.0000E+00  0.4286E+02  0.4286E+02
      5.061  0.0000E+00  0.0000E+00  0.4286E+02  0.4295E+02
      5.160  0.0000E+00  0.0000E+00  0.4295E+02  0.4300E+02
      5.259  0.0000E+00  0.0000E+00  0.4300E+02  0.4300E+02
      5.358  0.0000E+00  0.0000E+00  0.4300E+02  0.4300E+02
      5.457  0.0000E+00  0.0000E+00  0.4300E+02  0.4300E+02
      5.556  0.0000E+00  0.0000E+00  0.4300E+02  0.4300E+02
      5.655  0.0000E+00  0.0000E+00  0.4300E+02  0.4300E+02
      5.754  0.0000E+00  0.0000E+00  0.4300E+02  0.4300E+02
      5.853  0.0000E+00  0.0000E+00  0.4300E+02  0.4300E+02
      5.952  0.0000E+00  0.0000E+00  0.4300E+02  0.4300E+02
      6.051  0.0000E+00  0.0000E+00  0.4300E+02  0.4300E+02
      6.150  0.0000E+00  0.0000E+00  0.4300E+02  0.4300E+02
      6.249  0.0000E+00  0.0000E+00  0.4300E+02  0.4300E+02
      6.348  0.0000E+00  0.0000E+00  0.4300E+02  0.4300E+02
      6.447  0.0000E+00  0.0000E+00  0.4300E+02  0.4300E+02
      6.546  0.0000E+00  0.0000E+00  0.4306E+02  0.4306E+02
      6.645  0.0000E+00  0.0000E+00  0.4306E+02  0.4306E+02
      6.744  0.0000E+00  0.0000E+00  0.4306E+02  0.4306E+02
      6.843  0.0000E+00  0.0000E+00  0.4306E+02  0.4306E+02
      6.942  0.0000E+00  0.0000E+00  0.4306E+02  0.4306E+02
      7.041  0.0000E+00  0.0000E+00  0.4306E+02  0.4320E+02
      7.140  0.0000E+00  0.0000E+00  0.4339E+02  0.4339E+02
      7.239  0.0000E+00  0.0000E+00  0.4383E+02  0.4383E+02
      7.338  0.0000E+00  0.0000E+00  0.4383E+02  0.4383E+02
      7.437  0.0000E+00  0.0000E+00  0.4383E+02  0.4383E+02
      7.536  0.6239E-03  0.0000E+00  0.4386E+02  0.4392E+02
      7.635  0.0000E+00  0.4735E+00  0.4414E+02  0.4422E+02
      7.734  0.0000E+00  0.0000E+00  0.4439E+02  0.4439E+02
      7.833  0.0000E+00  0.0000E+00  0.4456E+02  0.4458E+02
      7.931  0.0000E+00  0.3447E-03  0.4484E+02  0.4484E+02
      8.030  0.0000E+00  0.0000E+00  0.4489E+02  0.4489E+02
      8.129  0.0000E+00  0.0000E+00  0.4506E+02  0.4508E+02
      8.228  0.3157E+00  0.0000E+00  0.4516E+02  0.4520E+02
      8.327  0.0000E+00  0.3157E+00  0.4555E+02  0.4594E+02
      8.426  0.0000E+00  0.0000E+00  0.4627E+02  0.4633E+02
      8.525  0.0000E+00  0.0000E+00  0.4673E+02  0.4677E+02
      8.624  0.0000E+00  0.0000E+00  0.4677E+02  0.4678E+02
      8.723  0.0000E+00  0.0000E+00  0.4714E+02  0.4711E+02
      8.822  0.3157E+00  0.1322E-04  0.4758E+02  0.4758E+02
      8.921  0.0000E+00  0.0000E+00  0.4777E+02  0.4780E+02
      9.020  0.0000E+00  0.0000E+00  0.4795E+02  0.4795E+02
      9.119  0.0000E+00  0.0000E+00  0.4800E+02  0.4800E+02
      9.218  0.0000E+00  0.0000E+00  0.4800E+02  0.4800E+02
      9.317  0.0000E+00  0.0000E+00  0.4800E+02  0.4800E+02
      9.416  0.0000E+00  0.0000E+00  0.4800E+02  0.4800E+02
      9.515  0.0000E+00  0.0000E+00  0.4800E+02  0.4800E+02
      9.614  0.0000E+00  0.0000E+00  0.4800E+02  0.4800E+02
      9.713  0.0000E+00  0.0000E+00  0.4800E+02  0.4800E+02
      9.812  0.0000E+00  0.0000E+00  0.4800E+02  0.4800E+02
      9.911  0.0000E+00  0.0000E+00  0.4800E+02  0.4800E+02
     10.010  0.0000E+00  0.0000E+00  0.4800E+02  0.4800E+02
     10.109  0.0000E+00  0.0000E+00  0.4800E+02  0.4800E+02
     10.208  0.0000E+00  0.0000E+00  0.4800E+02  0.4800E+02
     10.307  0.0000E+00  0.0000E+00  0.4800E+02  0.4800E+02
     10.406  0.0000E+00  0.0000E+00  0.4800E+02  0.4800E+02
     10.40595914    -19.28756662  301      1.70499739      1.00000000
    -19.288  0.0000E+00  0.0000E+00  0.0000E+00  0.0000E+00  0.0000E+00  0.0000E+00  0.0000E+00  0.0000E+00
    -19.189  0.0000E+00  0.0000E+00  0.0000E+00  0.0000E+00  0.0000E+00  0.0000E+00  0.0000E+00  0.0000E+00
    -19.090  0.0000E+00  0.0000E+00  0.0000E+00  0.0000E+00  0.0000E+00  0.0000E+00  0.0000E+00  0.0000E+00
    -18.991  0.0000E+00  0.0000E+00  0.0000E+00  0.0000E+00  0.0000E+00  0.0000E+00  0.0000E+00  0.0000E+00
    -18.892  0.0000E+00  0.0000E+00  0.0000E+00  0.0000E+00  0.0000E+00  0.0000E+00  0.0000E+00  0.0000E+00
    -18.793  0.0000E+00  0.0000E+00  0.0000E+00  0.0000E+00  0.0000E+00  0.0000E+00  0.0000E+00  0.0000E+00
    -18.694  0.0000E+00  0.0000E+00  0.0000E+00  0.0000E+00  0.0000E+00  0.0000E+00  0.0000E+00  0.0000E+00
    -18.595  0.0000E+00  0.0000E+00  0.0000E+00  0.0000E+00  0.0000E+00  0.0000E+00  0.0000E+00  0.0000E+00
    -18.496  0.0000E+00  0.0000E+00  0.0000E+00  0.0000E+00  0.0000E+00  0.0000E+00  0.0000E+00  0.0000E+00
    -18.397  0.0000E+00  0.0000E+00  0.0000E+00  0.0000E+00  0.0000E+00  0.0000E+00  0.0000E+00  0.0000E+00
    -18.298  0.0000E+00  0.0000E+00  0.0000E+00  0.0000E+00  0.0000E+00  0.0000E+00  0.0000E+00  0.0000E+00
    -18.199  0.0000E+00  0.0000E+00  0.0000E+00  0.0000E+00  0.0000E+00  0.0000E+00  0.0000E+00  0.0000E+00
    -18.100  0.0000E+00  0.0000E+00  0.0000E+00  0.0000E+00  0.0000E+00  0.0000E+00  0.0000E+00  0.0000E+00
    -18.001  0.0000E+00  0.0000E+00  0.0000E+00  0.0000E+00  0.0000E+00  0.0000E+00  0.0000E+00  0.0000E+00
    -17.902  0.0000E+00  0.0000E+00  0.0000E+00  0.0000E+00  0.0000E+00  0.0000E+00  0.0000E+00  0.0000E+00
    -17.803  0.0000E+00  0.0000E+00  0.0000E+00  0.0000E+00  0.0000E+00  0.0000E+00  0.0000E+00  0.0000E+00
    -17.704  0.0000E+00  0.0000E+00  0.0000E+00  0.0000E+00  0.0000E+00  0.0000E+00  0.0000E+00  0.0000E+00
    -17.605  0.0000E+00  0.0000E+00  0.0000E+00  0.0000E+00  0.0000E+00  0.0000E+00  0.0000E+00  0.0000E+00
    -17.506  0.0000E+00  0.0000E+00  0.0000E+00  0.0000E+00  0.0000E+00  0.0000E+00  0.0000E+00  0.0000E+00
    -17.407  0.0000E+00  0.0000E+00  0.0000E+00  0.0000E+00  0.0000E+00  0.0000E+00  0.0000E+00  0.0000E+00
    -17.308  0.0000E+00  0.0000E+00  0.0000E+00  0.0000E+00  0.0000E+00  0.0000E+00  0.0000E+00  0.0000E+00
    -17.209  0.0000E+00  0.0000E+00  0.0000E+00  0.0000E+00  0.0000E+00  0.0000E+00  0.0000E+00  0.0000E+00
    -17.110  0.0000E+00  0.0000E+00  0.0000E+00  0.0000E+00  0.0000E+00  0.0000E+00  0.0000E+00  0.0000E+00
    -17.011  0.0000E+00  0.0000E+00  0.0000E+00  0.0000E+00  0.0000E+00  0.0000E+00  0.0000E+00  0.0000E+00
    -16.912  0.0000E+00  0.0000E+00  0.0000E+00  0.0000E+00  0.0000E+00  0.0000E+00  0.0000E+00  0.0000E+00
    -16.813  0.0000E+00  0.0000E+00  0.0000E+00  0.0000E+00  0.0000E+00  0.0000E+00  0.0000E+00  0.0000E+00
    -16.714  0.0000E+00  0.0000E+00  0.0000E+00  0.0000E+00  0.0000E+00  0.0000E+00  0.0000E+00  0.0000E+00
    -16.615  0.0000E+00  0.0000E+00  0.0000E+00  0.0000E+00  0.0000E+00  0.0000E+00  0.0000E+00  0.0000E+00
    -16.516  0.0000E+00  0.0000E+00  0.0000E+00  0.0000E+00  0.0000E+00  0.0000E+00  0.0000E+00  0.0000E+00
    -16.417  0.0000E+00  0.0000E+00  0.0000E+00  0.0000E+00  0.0000E+00  0.0000E+00  0.0000E+00  0.0000E+00
    -16.318  0.0000E+00  0.0000E+00  0.0000E+00  0.0000E+00  0.0000E+00  0.0000E+00  0.0000E+00  0.0000E+00
    -16.219  0.0000E+00  0.0000E+00  0.0000E+00  0.0000E+00  0.0000E+00  0.0000E+00  0.0000E+00  0.0000E+00
    -16.120  0.0000E+00  0.0000E+00  0.0000E+00  0.0000E+00  0.0000E+00  0.0000E+00  0.0000E+00  0.0000E+00
    -16.021  0.0000E+00  0.0000E+00  0.0000E+00  0.0000E+00  0.0000E+00  0.0000E+00  0.0000E+00  0.0000E+00
    -15.922  0.0000E+00  0.0000E+00  0.0000E+00  0.0000E+00  0.0000E+00  0.0000E+00  0.0000E+00  0.0000E+00
    -15.823  0.0000E+00  0.0000E+00  0.0000E+00  0.0000E+00  0.0000E+00  0.0000E+00  0.0000E+00  0.0000E+00
    -15.724  0.0000E+00  0.0000E+00  0.0000E+00  0.0000E+00  0.0000E+00  0.0000E+00  0.0000E+00  0.0000E+00
    -15.625  0.0000E+00  0.0000E+00  0.0000E+00  0.0000E+00  0.0000E+00  0.0000E+00  0.0000E+00  0.0000E+00
    -15.526  0.0000E+00  0.0000E+00  0.0000E+00  0.0000E+00  0.0000E+00  0.0000E+00  0.0000E+00  0.0000E+00
    -15.427  0.0000E+00  0.0000E+00  0.0000E+00  0.0000E+00  0.0000E+00  0.0000E+00  0.0000E+00  0.0000E+00
    -15.328  0.0000E+00  0.0000E+00  0.0000E+00  0.0000E+00  0.0000E+00  0.0000E+00  0.0000E+00  0.0000E+00
    -15.229  0.0000E+00  0.0000E+00  0.0000E+00  0.0000E+00  0.0000E+00  0.0000E+00  0.0000E+00  0.0000E+00
    -15.130  0.0000E+00  0.0000E+00  0.0000E+00  0.0000E+00  0.0000E+00  0.0000E+00  0.0000E+00  0.0000E+00
    -15.031  0.0000E+00  0.0000E+00  0.0000E+00  0.0000E+00  0.0000E+00  0.0000E+00  0.0000E+00  0.0000E+00
    -14.933  0.0000E+00  0.0000E+00  0.0000E+00  0.0000E+00  0.0000E+00  0.0000E+00  0.0000E+00  0.0000E+00
    -14.834  0.0000E+00  0.0000E+00  0.0000E+00  0.0000E+00  0.0000E+00  0.0000E+00  0.0000E+00  0.0000E+00
    -14.735  0.0000E+00  0.0000E+00  0.0000E+00  0.0000E+00  0.0000E+00  0.0000E+00  0.0000E+00  0.0000E+00
    -14.636  0.0000E+00  0.0000E+00  0.0000E+00  0.0000E+00  0.0000E+00  0.0000E+00  0.0000E+00  0.0000E+00
    -14.537  0.0000E+00  0.0000E+00  0.0000E+00  0.0000E+00  0.0000E+00  0.0000E+00  0.0000E+00  0.0000E+00
    -14.438  0.0000E+00  0.0000E+00  0.0000E+00  0.0000E+00  0.0000E+00  0.0000E+00  0.0000E+00  0.0000E+00
    -14.339  0.0000E+00  0.0000E+00  0.0000E+00  0.0000E+00  0.0000E+00  0.0000E+00  0.0000E+00  0.0000E+00
    -14.240  0.0000E+00  0.0000E+00  0.0000E+00  0.0000E+00  0.0000E+00  0.0000E+00  0.0000E+00  0.0000E+00
    -14.141  0.0000E+00  0.0000E+00  0.0000E+00  0.0000E+00  0.0000E+00  0.0000E+00  0.0000E+00  0.0000E+00
    -14.042  0.0000E+00  0.0000E+00  0.0000E+00  0.0000E+00  0.0000E+00  0.0000E+00  0.0000E+00  0.0000E+00
    -13.943  0.0000E+00  0.0000E+00  0.0000E+00  0.0000E+00  0.0000E+00  0.0000E+00  0.0000E+00  0.0000E+00
    -13.844  0.0000E+00  0.0000E+00  0.0000E+00  0.0000E+00  0.0000E+00  0.0000E+00  0.0000E+00  0.0000E+00
    -13.745  0.0000E+00  0.0000E+00  0.0000E+00  0.0000E+00  0.0000E+00  0.0000E+00  0.0000E+00  0.0000E+00
    -13.646  0.0000E+00  0.0000E+00  0.0000E+00  0.0000E+00  0.0000E+00  0.0000E+00  0.0000E+00  0.0000E+00
    -13.547  0.0000E+00  0.0000E+00  0.0000E+00  0.0000E+00  0.0000E+00  0.0000E+00  0.0000E+00  0.0000E+00
    -13.448  0.0000E+00  0.0000E+00  0.0000E+00  0.0000E+00  0.0000E+00  0.0000E+00  0.0000E+00  0.0000E+00
    -13.349  0.0000E+00  0.0000E+00  0.0000E+00  0.0000E+00  0.0000E+00  0.0000E+00  0.0000E+00  0.0000E+00
    -13.250  0.0000E+00  0.0000E+00  0.0000E+00  0.0000E+00  0.0000E+00  0.0000E+00  0.0000E+00  0.0000E+00
    -13.151  0.0000E+00  0.0000E+00  0.0000E+00  0.0000E+00  0.0000E+00  0.0000E+00  0.0000E+00  0.0000E+00
    -13.052  0.0000E+00  0.0000E+00  0.0000E+00  0.0000E+00  0.0000E+00  0.0000E+00  0.0000E+00  0.0000E+00
    -12.953  0.0000E+00  0.0000E+00  0.0000E+00  0.0000E+00  0.0000E+00  0.0000E+00  0.0000E+00  0.0000E+00
    -12.854  0.0000E+00  0.0000E+00  0.0000E+00  0.0000E+00  0.0000E+00  0.0000E+00  0.0000E+00  0.0000E+00
    -12.755  0.0000E+00  0.0000E+00  0.0000E+00  0.0000E+00  0.0000E+00  0.0000E+00  0.0000E+00  0.0000E+00
    -12.656  0.0000E+00  0.0000E+00  0.0000E+00  0.0000E+00  0.0000E+00  0.0000E+00  0.0000E+00  0.0000E+00
    -12.557  0.0000E+00  0.0000E+00  0.0000E+00  0.0000E+00  0.0000E+00  0.0000E+00  0.0000E+00  0.0000E+00
    -12.458  0.0000E+00  0.0000E+00  0.0000E+00  0.0000E+00  0.0000E+00  0.0000E+00  0.0000E+00  0.0000E+00
    -12.359  0.0000E+00  0.0000E+00  0.0000E+00  0.0000E+00  0.0000E+00  0.0000E+00  0.0000E+00  0.0000E+00
    -12.260  0.0000E+00  0.3923E-04  0.0000E+00  0.8186E-03  0.0000E+00  0.2705E-02  0.0000E+00  0.0000E+00
    -12.161  0.1341E-14  0.0000E+00  0.3262E-13  0.0000E+00  0.9997E-13  0.0000E+00  0.0000E+00  0.0000E+00
    -12.062  0.0000E+00  0.0000E+00  0.0000E+00  0.0000E+00  0.0000E+00  0.0000E+00  0.0000E+00  0.0000E+00
    -11.963  0.0000E+00  0.0000E+00  0.0000E+00  0.0000E+00  0.0000E+00  0.0000E+00  0.0000E+00  0.0000E+00
    -11.864  0.0000E+00  0.0000E+00  0.0000E+00  0.0000E+00  0.0000E+00  0.0000E+00  0.0000E+00  0.0000E+00
    -11.765  0.0000E+00  0.0000E+00  0.0000E+00  0.0000E+00  0.0000E+00  0.0000E+00  0.0000E+00  0.0000E+00
    -11.666  0.0000E+00  0.0000E+00  0.0000E+00  0.0000E+00  0.0000E+00  0.0000E+00  0.0000E+00  0.0000E+00
    -11.567  0.0000E+00  0.0000E+00  0.0000E+00  0.0000E+00  0.0000E+00  0.0000E+00  0.0000E+00  0.0000E+00
    -11.468  0.0000E+00  0.0000E+00  0.0000E+00  0.0000E+00  0.0000E+00  0.0000E+00  0.0000E+00  0.0000E+00
    -11.369  0.0000E+00  0.0000E+00  0.0000E+00  0.0000E+00  0.0000E+00  0.0000E+00  0.0000E+00  0.0000E+00
    -11.270  0.0000E+00  0.0000E+00  0.0000E+00  0.0000E+00  0.0000E+00  0.0000E+00  0.0000E+00  0.0000E+00
    -11.171  0.0000E+00  0.0000E+00  0.0000E+00  0.0000E+00  0.0000E+00  0.0000E+00  0.0000E+00  0.0000E+00
    -11.072  0.0000E+00  0.0000E+00  0.0000E+00  0.0000E+00  0.0000E+00  0.0000E+00  0.0000E+00  0.0000E+00
    -10.973  0.0000E+00  0.0000E+00  0.0000E+00  0.0000E+00  0.0000E+00  0.0000E+00  0.0000E+00  0.0000E+00
    -10.874  0.0000E+00  0.0000E+00  0.0000E+00  0.0000E+00  0.0000E+00  0.0000E+00  0.0000E+00  0.0000E+00
    -10.775  0.0000E+00  0.0000E+00  0.0000E+00  0.0000E+00  0.0000E+00  0.0000E+00  0.0000E+00  0.0000E+00
    -10.676  0.0000E+00  0.0000E+00  0.0000E+00  0.0000E+00  0.0000E+00  0.0000E+00  0.0000E+00  0.0000E+00
    -10.577  0.0000E+00  0.0000E+00  0.0000E+00  0.0000E+00  0.0000E+00  0.0000E+00  0.0000E+00  0.0000E+00
    -10.478  0.0000E+00  0.0000E+00  0.0000E+00  0.0000E+00  0.0000E+00  0.0000E+00  0.0000E+00  0.0000E+00
    -10.380  0.0000E+00  0.0000E+00  0.0000E+00  0.0000E+00  0.0000E+00  0.0000E+00  0.0000E+00  0.0000E+00
    -10.281  0.0000E+00  0.0000E+00  0.0000E+00  0.0000E+00  0.0000E+00  0.0000E+00  0.0000E+00  0.0000E+00
    -10.182  0.0000E+00  0.0000E+00  0.0000E+00  0.0000E+00  0.0000E+00  0.0000E+00  0.0000E+00  0.0000E+00
    -10.083  0.0000E+00  0.0000E+00  0.0000E+00  0.0000E+00  0.0000E+00  0.0000E+00  0.0000E+00  0.0000E+00
     -9.984  0.0000E+00  0.0000E+00  0.0000E+00  0.0000E+00  0.0000E+00  0.0000E+00  0.0000E+00  0.0000E+00
     -9.885  0.0000E+00  0.0000E+00  0.0000E+00  0.0000E+00  0.0000E+00  0.0000E+00  0.0000E+00  0.0000E+00
     -9.786  0.0000E+00  0.0000E+00  0.0000E+00  0.0000E+00  0.0000E+00  0.0000E+00  0.0000E+00  0.0000E+00
     -9.687  0.0000E+00  0.0000E+00  0.0000E+00  0.0000E+00  0.0000E+00  0.0000E+00  0.0000E+00  0.0000E+00
     -9.588  0.0000E+00  0.0000E+00  0.0000E+00  0.0000E+00  0.0000E+00  0.0000E+00  0.0000E+00  0.0000E+00
     -9.489  0.0000E+00  0.0000E+00  0.0000E+00  0.0000E+00  0.0000E+00  0.0000E+00  0.0000E+00  0.0000E+00
     -9.390  0.0000E+00  0.0000E+00  0.0000E+00  0.0000E+00  0.0000E+00  0.0000E+00  0.0000E+00  0.0000E+00
     -9.291  0.0000E+00  0.0000E+00  0.0000E+00  0.0000E+00  0.0000E+00  0.0000E+00  0.0000E+00  0.0000E+00
     -9.192  0.0000E+00  0.0000E+00  0.0000E+00  0.0000E+00  0.0000E+00  0.0000E+00  0.0000E+00  0.0000E+00
     -9.093  0.0000E+00  0.0000E+00  0.0000E+00  0.0000E+00  0.0000E+00  0.0000E+00  0.0000E+00  0.0000E+00
     -8.994  0.0000E+00  0.0000E+00  0.0000E+00  0.0000E+00  0.0000E+00  0.0000E+00  0.0000E+00  0.0000E+00
     -8.895  0.0000E+00  0.0000E+00  0.0000E+00  0.0000E+00  0.0000E+00  0.0000E+00  0.0000E+00  0.0000E+00
     -8.796  0.0000E+00  0.0000E+00  0.0000E+00  0.0000E+00  0.0000E+00  0.0000E+00  0.0000E+00  0.0000E+00