       N       E                     dE             d eps       ncg     rms          ort
DAV:   1     0.699143779042E+03    0.69914E+03   -0.29167E+04  3072   0.114E+03
DAV:   2     0.395378466791E+02   -0.65961E+03   -0.64783E+03  3072   0.330E+02
DAV:   3    -0.293982213510E+02   -0.68936E+02   -0.68164E+02  3072   0.127E+02
DAV:   4    -0.318418541231E+02   -0.24436E+01   -0.24361E+01  3072   0.252E+01
DAV:   5    -0.319525772815E+02   -0.11072E+00   -0.11070E+00  3072   0.547E+00
SDA:   6    -0.230151423730E+02    0.89374E+01   -0.11070E+00  3072   0.383E+02 0.000E+00
CGA:   7    -0.289234352328E+02   -0.59083E+01   -0.59342E+01  3072   0.182E+01 0.133E+00
CGA:   8    -0.287564238053E+02    0.16701E+00   -0.12590E+01  3072   0.614E+01-0.236E+01
CGA:   9    -0.298402184274E+02   -0.10838E+01   -0.10866E+01  3072   0.356E+00 0.121E-01
CGA:  10    -0.299270941100E+02   -0.86876E-01   -0.86892E-01  3072   0.526E-01-0.449E-03
CGA:  11    -0.298979457566E+02    0.29148E-01   -0.48883E-01  3072   0.252E+00-0.870E-01
CGA:  12    -0.299527272324E+02   -0.54781E-01   -0.54735E-01  3072   0.201E-01-0.283E-03
CGA:  13    -0.299587285053E+02   -0.60013E-02   -0.59181E-02  3072   0.581E-02 0.113E-02
CGA:  14    -0.299594123692E+02   -0.68386E-03   -0.93380E-03  3072   0.961E-03 0.809E-06
CGA:  15    -0.299594449465E+02   -0.32577E-04   -0.13398E-03  3072   0.850E-03 0.276E-03
CGA:  16    -0.299595334468E+02   -0.88500E-04   -0.10859E-03  3072   0.691E-03-0.273E-03
CGA:  17    -0.299596293661E+02   -0.95919E-04   -0.43852E-04  3072   0.488E-03-0.291E-03
CGA:  18    -0.299596335935E+02   -0.42274E-05   -0.48196E-04  3072   0.560E-03-0.238E-04
CGA:  19    -0.299596495944E+02   -0.16001E-04   -0.34049E-04  3072   0.345E-03-0.347E-03
CGA:  20    -0.299596599613E+02   -0.10367E-04   -0.31397E-04  3072   0.361E-03-0.105E-03
CGA:  21    -0.299596431943E+02    0.16767E-04   -0.13643E-04  3072   0.354E-03-0.185E-03
CGA:  22    -0.299596710307E+02   -0.27836E-04   -0.36361E-04  3072   0.283E-03-0.903E-04
CGA:  23    -0.299596797241E+02   -0.86934E-05   -0.11078E-04  3072   0.251E-03-0.231E-03
CGA:  24    -0.299596804168E+02   -0.69263E-06   -0.18683E-04  3072   0.242E-03-0.906E-04
CGA:  25    -0.299597637284E+02   -0.83312E-04   -0.66478E-05  3072   0.268E-02 0.610E-02
CGA:  26    -0.299596948800E+02    0.68848E-04   -0.22264E-03  3072   0.180E-02 0.555E-03
CGA:  27    -0.299596812292E+02    0.13651E-04   -0.17866E-03  3072   0.217E-03-0.173E-03
CGA:  28    -0.299597005709E+02   -0.19342E-04   -0.16999E-04  3072   0.184E-03-0.102E-03
CGA:  29    -0.299597614124E+02   -0.60841E-04   -0.33028E-05  3072   0.365E-02-0.551E-02
CGA:  30    -0.299597998946E+02   -0.38482E-04   -0.27465E-03  3072   0.578E-03 0.522E-03
CGA:  31    -0.299597135274E+02    0.86367E-04   -0.38914E-04  3072   0.174E-02-0.387E-03
CGA:  32    -0.299597404013E+02   -0.26874E-04   -0.13838E-03  3072   0.381E-02 0.160E-04
CGA:  33    -0.299596628821E+02    0.77519E-04   -0.25416E-03  3072   0.218E-03-0.268E-03
CGA:  34    -0.299596822504E+02   -0.19368E-04   -0.19133E-04  3072   0.182E-03-0.462E-04
CGA:  35    -0.299598052789E+02   -0.12303E-03   -0.12554E-04  3072   0.357E-03-0.275E-02
CGA:  36    -0.299597897022E+02    0.15577E-04   -0.11560E-04  3072   0.222E-02-0.741E-03
CGA:  37    -0.299598073509E+02   -0.17649E-04   -0.12646E-03  3072   0.128E-03 0.253E-03
CGA:  38    -0.299598086421E+02   -0.12912E-05   -0.22926E-05  3072   0.281E-03-0.173E-04
CGA:  39    -0.299597158994E+02    0.92743E-04   -0.41898E-05  3072   0.217E-02-0.353E-02
CGA:  40    -0.299598040124E+02   -0.88113E-04   -0.14904E-03  3072   0.515E-04-0.851E-04
CGA:  41    -0.299598047369E+02   -0.72448E-06   -0.39631E-06  3072   0.413E-04 0.412E-04
   1 F= -.29959805E+02 E0= -.29959803E+02  d E =-.363593E-05  mag=    -0.5937
