 vasp.6.3.0 20Jan22 (build Feb 17 2022 08:07:03) complex                        
  
 executed on             LinuxGNU date 2024.04.13  16:28:44
 running on   64 total cores
 distrk:  each k-point on    8 cores,    8 groups
 distr:  one band on NCORE=   1 cores,    8 groups


--------------------------------------------------------------------------------------------------------


 INCAR:
   ISTART = 0
   ISPIN = 2
   LWAVE = .FALSE.
   ALGO = A
   NPAR = 16
   KPAR = 8
   ISMEAR = 0
   SIGMA = 0.0001
   NELM = 180
   ISYM = -1
   GGA = PE
   LORBIT = 10
   ENCUT = 350
   EDIFF = 1e-06
   MAGMOM = 0.00 -3.40 2*0.0 6*0.0

 POTCAR:    PAW_PBE Hg 06Sep2000                  
 POTCAR:    PAW_PBE Ag 02Apr2005                  
 POTCAR:    PAW_PBE Cs_sv_GW 25Jan2019            
 POTCAR:    PAW_PBE Cl 06Sep2000                  
 -----------------------------------------------------------------------------
|                                                                             |
|           W    W    AA    RRRRR   N    N  II  N    N   GGGG   !!!           |
|           W    W   A  A   R    R  NN   N  II  NN   N  G    G  !!!           |
|           W    W  A    A  R    R  N N  N  II  N N  N  G       !!!           |
|           W WW W  AAAAAA  RRRRR   N  N N  II  N  N N  G  GGG   !            |
|           WW  WW  A    A  R   R   N   NN  II  N   NN  G    G                |
|           W    W  A    A  R    R  N    N  II  N    N   GGGG   !!!           |
|                                                                             |
|     The value NPAR = 16 specified in the INCAR file was overwritten,        |
|     because it was not compatible with the 8 processes available:           |
|     NPAR = 8                                                                |
|     was used instead, please check that this makes sense for your           |
|     machine.                                                                |
|                                                                             |
 -----------------------------------------------------------------------------

 -----------------------------------------------------------------------------
|                                                                             |
|           W    W    AA    RRRRR   N    N  II  N    N   GGGG   !!!           |
|           W    W   A  A   R    R  NN   N  II  NN   N  G    G  !!!           |
|           W    W  A    A  R    R  N N  N  II  N N  N  G       !!!           |
|           W WW W  AAAAAA  RRRRR   N  N N  II  N  N N  G  GGG   !            |
|           WW  WW  A    A  R   R   N   NN  II  N   NN  G    G                |
|           W    W  A    A  R    R  N    N  II  N    N   GGGG   !!!           |
|                                                                             |
|     For optimal performance we recommend to set                             |
|       NCORE = 2 up to number-of-cores-per-socket                            |
|     NCORE specifies how many cores store one orbital (NPAR=cpu/NCORE).      |
|     This setting can greatly improve the performance of VASP for DFT.       |
|     The default, NCORE=1 might be grossly inefficient on modern             |
|     multi-core architectures or massively parallel machines. Do your        |
|     own testing! More info at https://www.vasp.at/wiki/index.php/NCORE      |
|     Unfortunately you need to use the default for GW and RPA                |
|     calculations (for HF NCORE is supported but not extensively tested      |
|     yet).                                                                   |
|                                                                             |
 -----------------------------------------------------------------------------

 POTCAR:    PAW_PBE Hg 06Sep2000                  
   SHA256 =  b58054e5facb8a6c456f8fea289fc655b681c0fa06131ba074282c377c596e89 Hg/POTCAR             
   COPYR  = (c) Copyright 06Sep2000 Georg Kresse                                                    
   COPYR  = This file is part of the software VASP. Any use, copying, and all other rights are regul
   COPYR  = If you do not have a valid VASP license, you may not use, copy or distribute this file. 
   VRHFIN =Hg: 10s 2d fine mesh  91                                                                 
   LEXCH  = PE                                                                                      
   EATOM  =  1148.5194 eV,   84.4138 Ry                                                             
                                                                                                    
   TITEL  = PAW_PBE Hg 06Sep2000                                                                    
   LULTRA =        F    use ultrasoft PP ?                                                          
   IUNSCR =        1    unscreen: 0-lin 1-nonlin 2-no                                               
   RPACOR =    2.500    partial core radius                                                         
   POMASS =  200.590; ZVAL   =   12.000    mass and valenz                                          
   RCORE  =    2.500    outmost cutoff radius                                                       
   RWIGS  =    3.050; RWIGS  =    1.614    wigner-seitz radius (au A)                               
   ENMAX  =  233.204; ENMIN  =  174.903 eV                                                          
   RCLOC  =    2.106    cutoff for local pot                                                        
   LCOR   =        T    correct aug charges                                                         
   LPAW   =        T    paw PP                                                                      
   EAUG   =  352.362                                                                                
   DEXC   =    0.000                                                                                
   RMAX   =    2.557    core radius for proj-oper                                                   
   RAUG   =    1.300    factor for augmentation sphere                                              
   RDEP   =    2.614    radius for radial grids                                                     
   RDEPT  =    2.171    core radius for aug-charge                                                  
                                                                                                    
   Atomic configuration                                                                             
   15 entries                                                                                       
     n  l   j            E        occ.                                                              
     1  0  0.50    -83145.9708   2.0000                                                             
     2  0  0.50    -14733.6065   2.0000                                                             
     2  1  1.50    -12701.0377   6.0000                                                             
     3  0  0.50     -3496.3892   2.0000                                                             
     3  1  1.50     -2909.4293   6.0000                                                             
     3  2  2.50     -2293.1414  10.0000                                                             
     4  0  0.50      -768.8230   2.0000                                                             
     4  1  1.50      -576.4602   6.0000                                                             
     4  2  2.50      -348.5618  10.0000                                                             
     4  3  3.50       -95.9099  14.0000                                                             
     5  0  0.50      -118.1284   2.0000                                                             
     5  1  1.50       -66.4778   6.0000                                                             
     5  2  2.50        -9.8614  10.0000                                                             
     6  0  0.50        -6.8147   2.0000                                                             
     6  1  1.50        -6.8029   0.0000                                                             
   Description                                                                                      
     l       E           TYP  RCUT    TYP  RCUT                                                     
     2     -9.8614287     23  2.500                                                                 
     2    -11.2220113     23  2.500                                                                 
     0     -6.8147273     23  2.500                                                                 
     0     -4.0297848     23  2.500                                                                 
     1     -2.7211652     23  2.500                                                                 
     1      8.0997183     23  2.500                                                                 
  local pseudopotential read in
  partial core-charges read in
  partial kinetic energy density read in
  atomic valenz-charges read in
  non local Contribution for L=           2  read in
    real space projection operators read in
  non local Contribution for L=           2  read in
    real space projection operators read in
  non local Contribution for L=           0  read in
    real space projection operators read in
  non local Contribution for L=           0  read in
    real space projection operators read in
  non local Contribution for L=           1  read in
    real space projection operators read in
  non local Contribution for L=           1  read in
    real space projection operators read in
    PAW grid and wavefunctions read in
 
   number of l-projection  operators is LMAX  =           6
   number of lm-projection operators is LMMAX =          18
 
 POTCAR:    PAW_PBE Ag 02Apr2005                  
   SHA256 =  6550cfa3543261e132c169e1b98a529204624d72be14e2da2e0242bcb74a174d Ag/POTCAR             
   COPYR  = (c) Copyright 02Apr2005 Georg Kresse                                                    
   COPYR  = This file is part of the software VASP. Any use, copying, and all other rights are regul
   COPYR  = If you do not have a valid VASP license, you may not use, copy or distribute this file. 
   VRHFIN =Ag : s1 d10                                                                              
   LEXCH  = PE                                                                                      
   EATOM  =  1037.2675 eV,   76.2370 Ry                                                             
                                                                                                    
   TITEL  = PAW_PBE Ag 02Apr2005                                                                    
   LULTRA =        F    use ultrasoft PP ?                                                          
   IUNSCR =        1    unscreen: 0-lin 1-nonlin 2-no                                               
   RPACOR =    2.000    partial core radius                                                         
   POMASS =  107.868; ZVAL   =   11.000    mass and valenz                                          
   RCORE  =    2.500    outmost cutoff radius                                                       
   RWIGS  =    2.840; RWIGS  =    1.503    wigner-seitz radius (au A)                               
   ENMAX  =  249.844; ENMIN  =  187.383 eV                                                          
   ICORE  =        3    local potential                                                             
   LCOR   =        T    correct aug charges                                                         
   LPAW   =        T    paw PP                                                                      
   EAUG   =  412.496                                                                                
   DEXC   =    0.000                                                                                
   RMAX   =    2.560    core radius for proj-oper                                                   
   RAUG   =    1.300    factor for augmentation sphere                                              
   RDEP   =    2.576    radius for radial grids                                                     
   RDEPT  =    2.072    core radius for aug-charge                                                  
                                                                                                    
   Atomic configuration                                                                             
   12 entries                                                                                       
     n  l   j            E        occ.                                                              
     1  0  0.50    -25324.9161   2.0000                                                             
     2  0  0.50     -3728.5341   2.0000                                                             
     2  1  1.50     -3344.0404   6.0000                                                             
     3  0  0.50      -683.5581   2.0000                                                             
     3  1  1.50      -557.3225   6.0000                                                             
     3  2  2.50      -358.3853  10.0000                                                             
     4  0  0.50       -95.0341   2.0000                                                             
     4  1  1.50       -58.5511   6.0000                                                             
     4  2  2.50        -7.4440  10.0000                                                             
     5  0  0.50        -4.4045   1.0000                                                             
     5  1  0.50        -1.3606   0.0000                                                             
     4  3  2.50        -1.3606   0.0000                                                             
   Description                                                                                      
     l       E           TYP  RCUT    TYP  RCUT                                                     
     2     -7.4439781     23  2.400                                                                 
     2     -8.8045607     23  2.400                                                                 
     0     -4.4044681     23  2.400                                                                 
     0      1.9520038     23  2.400                                                                 
     1     -1.3605826     23  2.500                                                                 
     1     27.2116520     23  2.500                                                                 
     3     -4.0817478     23  2.400                                                                 
  local pseudopotential read in
  partial core-charges read in
  partial kinetic energy density read in
  atomic valenz-charges read in
  non local Contribution for L=           2  read in
    real space projection operators read in
  non local Contribution for L=           2  read in
    real space projection operators read in
  non local Contribution for L=           0  read in
    real space projection operators read in
  non local Contribution for L=           0  read in
    real space projection operators read in
  non local Contribution for L=           1  read in
    real space projection operators read in
  non local Contribution for L=           1  read in
    real space projection operators read in
    PAW grid and wavefunctions read in
 
   number of l-projection  operators is LMAX  =           6
   number of lm-projection operators is LMMAX =          18
 
 POTCAR:    PAW_PBE Cs_sv_GW 25Jan2019            
   SHA256 =  544505def5554af6a71dbf4e0824d8cfbc5d58c6010915fb427a3861796039e8 Cs_sv_GW/POTCAR       
   COPYR  = (c) Copyright 25Jan2019 Georg Kresse                                                    
   COPYR  = This file is part of the software VASP. Any use, copying, and all other rights are regul
   COPYR  = If you do not have a valid VASP license, you may not use, copy or distribute this file. 
   VRHFIN =Cs: 5s5p6s                                                                               
   LEXCH  = PE                                                                                      
   EATOM  =   553.9786 eV,   40.7163 Ry                                                             
                                                                                                    
   TITEL  = PAW_PBE Cs_sv_GW 25Jan2019                                                              
   LULTRA =        F    use ultrasoft PP ?                                                          
   IUNSCR =        1    unscreen: 0-lin 1-nonlin 2-no                                               
   RPACOR =    1.800    partial core radius                                                         
   POMASS =  132.900; ZVAL   =    9.000    mass and valenz                                          
   RCORE  =    2.800    outmost cutoff radius                                                       
   RWIGS  =    2.800; RWIGS  =    1.482    wigner-seitz radius (au A)                               
   ENMAX  =  198.101; ENMIN  =  148.575 eV                                                          
   RCLOC  =    1.807    cutoff for local pot                                                        
   LCOR   =        T    correct aug charges                                                         
   LPAW   =        T    paw PP                                                                      
   EAUG   =  528.800                                                                                
   DEXC   =   -0.000                                                                                
   RMAX   =    2.857    core radius for proj-oper                                                   
   RAUG   =    1.300    factor for augmentation sphere                                              
   RDEP   =    2.944    radius for radial grids                                                     
   RDEPT  =    2.264    core radius for aug-charge                                                  
                                                                                                    
   Atomic configuration                                                                             
   13 entries                                                                                       
     n  l   j            E        occ.                                                              
     1  0  0.50    -35790.3517   2.0000                                                             
     2  0  0.50     -5613.8021   2.0000                                                             
     2  1  1.50     -5035.1938   6.0000                                                             
     3  0  0.50     -1167.2590   2.0000                                                             
     3  1  1.50      -981.1578   6.0000                                                             
     3  2  2.50      -708.2511  10.0000                                                             
     4  0  0.50      -220.4162   2.0000                                                             
     4  1  1.50      -160.9356   6.0000                                                             
     4  2  2.50       -74.4049  10.0000                                                             
     5  0  0.50       -26.8702   2.0000                                                             
     5  1  1.50       -13.6836   6.0000                                                             
     5  2  2.50        -0.5763   1.0000                                                             
     5  3  2.50        -1.3606   0.0000                                                             
   Description                                                                                      
     l       E           TYP  RCUT    TYP  RCUT                                                     
     0    -26.8701825     23  1.700                                                                 
     0    -28.2307651     23  1.700                                                                 
     1    -13.6835844     23  2.200                                                                 
     1     81.6349560     23  2.200                                                                 
     2     -0.5763402     23  2.600                                                                 
     2      9.2241064     23  2.600                                                                 
     3      2.7211652     23  2.800                                                                 
     3      5.4423304     23  2.800                                                                 
  local pseudopotential read in
  partial core-charges read in
  partial kinetic energy density read in
  kinetic energy density of atom read in
  atomic valenz-charges read in
  non local Contribution for L=           0  read in
    real space projection operators read in
  non local Contribution for L=           0  read in
    real space projection operators read in
  non local Contribution for L=           1  read in
    real space projection operators read in
  non local Contribution for L=           1  read in
    real space projection operators read in
  non local Contribution for L=           2  read in
    real space projection operators read in
  non local Contribution for L=           2  read in
    real space projection operators read in
  non local Contribution for L=           3  read in
    real space projection operators read in
  non local Contribution for L=           3  read in
    real space projection operators read in
    PAW grid and wavefunctions read in
 
   number of l-projection  operators is LMAX  =           8
   number of lm-projection operators is LMMAX =          32
 
 POTCAR:    PAW_PBE Cl 06Sep2000                  
   SHA256 =  9f1b6e6ed4247ac726a768b330d26d7667cc3c95a39ff49c1d064c2d9dcce931 Cl/POTCAR             
   COPYR  = (c) Copyright 06Sep2000 Georg Kresse                                                    
   COPYR  = This file is part of the software VASP. Any use, copying, and all other rights are regul
   COPYR  = If you do not have a valid VASP license, you may not use, copy or distribute this file. 
   VRHFIN =Cl: s2p5                                                                                 
   LEXCH  = PE                                                                                      
   EATOM  =   409.7259 eV,   30.1140 Ry                                                             
                                                                                                    
   TITEL  = PAW_PBE Cl 06Sep2000                                                                    
   LULTRA =        F    use ultrasoft PP ?                                                          
   IUNSCR =        1    unscreen: 0-lin 1-nonlin 2-no                                               
   RPACOR =    1.500    partial core radius                                                         
   POMASS =   35.453; ZVAL   =    7.000    mass and valenz                                          
   RCORE  =    1.900    outmost cutoff radius                                                       
   RWIGS  =    2.100; RWIGS  =    1.111    wigner-seitz radius (au A)                               
   ENMAX  =  262.472; ENMIN  =  196.854 eV                                                          
   ICORE  =        2    local potential                                                             
   LCOR   =        T    correct aug charges                                                         
   LPAW   =        T    paw PP                                                                      
   EAUG   =  356.192                                                                                
   DEXC   =    0.000                                                                                
   RMAX   =    1.945    core radius for proj-oper                                                   
   RAUG   =    1.300    factor for augmentation sphere                                              
   RDEP   =    2.020    radius for radial grids                                                     
   RDEPT  =    1.678    core radius for aug-charge                                                  
                                                                                                    
   Atomic configuration                                                                             
    6 entries                                                                                       
     n  l   j            E        occ.                                                              
     1  0  0.50     -2751.1850   2.0000                                                             
     2  0  0.50      -252.6861   2.0000                                                             
     2  1  1.50      -191.6157   6.0000                                                             
     3  0  0.50       -20.6916   2.0000                                                             
     3  1  0.50        -8.5949   5.0000                                                             
     3  2  1.50        -8.1635   0.0000                                                             
   Description                                                                                      
     l       E           TYP  RCUT    TYP  RCUT                                                     
     0    -20.6915656     23  1.900                                                                 
     0    -22.0521482     23  1.900                                                                 
     1     -8.5948577     23  1.900                                                                 
     1     -5.3847331     23  1.900                                                                 
     2     -8.1634956     23  1.900                                                                 
  local pseudopotential read in
  partial core-charges read in
  partial kinetic energy density read in
  atomic valenz-charges read in
  non local Contribution for L=           0  read in
    real space projection operators read in
  non local Contribution for L=           0  read in
    real space projection operators read in
  non local Contribution for L=           1  read in
    real space projection operators read in
  non local Contribution for L=           1  read in
    real space projection operators read in
    PAW grid and wavefunctions read in
 
   number of l-projection  operators is LMAX  =           4
   number of lm-projection operators is LMMAX =           8
 
  PAW_PBE Hg 06Sep2000                  :
 energy of atom  1       EATOM=-1148.5194
 kinetic energy error for atom=    0.0167 (will be added to EATOM!!)
  PAW_PBE Ag 02Apr2005                  :
 energy of atom  2       EATOM=-1037.2675
 kinetic energy error for atom=    0.0272 (will be added to EATOM!!)
  PAW_PBE Cs_sv_GW 25Jan2019            :
 energy of atom  3       EATOM= -553.9786
 kinetic energy error for atom=    0.0157 (will be added to EATOM!!)
  PAW_PBE Cl 06Sep2000                  :
 energy of atom  4       EATOM= -409.7259
 kinetic energy error for atom=    0.0105 (will be added to EATOM!!)
 
 
 POSCAR: CsHgAgCl
  positions in direct lattice
  velocities in cartesian coordinates
 exchange correlation table for  LEXCH =        8
   RHO(1)=    0.500       N(1)  =     2000
   RHO(2)=  100.500       N(2)  =     4000
 


--------------------------------------------------------------------------------------------------------


 ion  position               nearest neighbor table
   1  0.000  0.000  0.000-   5 2.62   6 2.62   7 2.62   8 2.62   9 2.62  10 2.62
   2  0.500  0.500  0.500-   5 2.55   6 2.55   7 2.55   8 2.55   9 2.55  10 2.55
   3  0.250  0.250  0.250-
   4  0.750  0.750  0.750-
   5  0.747  0.253  0.253-   2 2.55   1 2.62
   6  0.253  0.747  0.747-   2 2.55   1 2.62
   7  0.253  0.747  0.253-   2 2.55   1 2.62
   8  0.747  0.253  0.747-   2 2.55   1 2.62
   9  0.253  0.253  0.747-   2 2.55   1 2.62
  10  0.747  0.747  0.253-   2 2.55   1 2.62
 

IMPORTANT INFORMATION: All symmetrisations will be switched off!
NOSYMM: (Re-)initialisation of all symmetry stuff for point group C_1.


----------------------------------------------------------------------------------------

                                     Primitive cell                                     

  volume of cell :     276.2684

  direct lattice vectors                    reciprocal lattice vectors
     0.000000000  5.169323800  5.169323800    -0.096724450  0.096724450  0.096724450
     5.169323800  0.000000000  5.169323800     0.096724450 -0.096724450  0.096724450
     5.169323800  5.169323800  0.000000000     0.096724450  0.096724450 -0.096724450

  length of vectors
     7.310527826  7.310527826  7.310527826     0.167531661  0.167531661  0.167531661

  position of ions in fractional coordinates (direct lattice)
     0.000000000  0.000000000  0.000000000
     0.500000000  0.500000000  0.500000000
     0.250000000  0.250000000  0.250000000
     0.750000000  0.750000000  0.750000000
     0.746765063  0.253234937  0.253234937
     0.253234937  0.746765063  0.746765063
     0.253234937  0.746765063  0.253234937
     0.746765063  0.253234937  0.746765063
     0.253234937  0.253234937  0.746765063
     0.746765063  0.746765063  0.253234937

  ion indices of the primitive-cell ions
   primitive index   ion index
                 1           1
                 2           2
                 3           3
                 4           4
                 5           5
                 6           6
                 7           7
                 8           8
                 9           9
                10          10

----------------------------------------------------------------------------------------

 
 
 KPOINTS: k-points                                

Automatic generation of k-mesh.
 Grid dimensions read from file:
 generate k-points for:    4    4    4

 Generating k-lattice:

  Cartesian coordinates                     Fractional coordinates (reciprocal lattice)
    -0.024181112  0.024181112  0.024181112     0.250000000  0.000000000  0.000000000
     0.024181112 -0.024181112  0.024181112     0.000000000  0.250000000  0.000000000
     0.024181112  0.024181112 -0.024181112     0.000000000  0.000000000  0.250000000

  Length of vectors
     0.041882915  0.041882915  0.041882915

  Shift w.r.t. Gamma in fractional coordinates (k-lattice)
     0.000000000  0.000000000  0.000000000

 
 Subroutine IBZKPT returns following result:
 ===========================================
 
 Found     64 irreducible k-points:
 
 Following reciprocal coordinates:
            Coordinates               Weight
  0.000000  0.000000  0.000000      1.000000
  0.250000  0.000000  0.000000      1.000000
  0.500000  0.000000  0.000000      1.000000
 -0.250000  0.000000  0.000000      1.000000
  0.000000  0.250000  0.000000      1.000000
  0.250000  0.250000  0.000000      1.000000
  0.500000  0.250000  0.000000      1.000000
 -0.250000  0.250000  0.000000      1.000000
  0.000000  0.500000  0.000000      1.000000
  0.250000  0.500000  0.000000      1.000000
  0.500000  0.500000  0.000000      1.000000
 -0.250000  0.500000  0.000000      1.000000
  0.000000 -0.250000  0.000000      1.000000
  0.250000 -0.250000  0.000000      1.000000
  0.500000 -0.250000  0.000000      1.000000
 -0.250000 -0.250000  0.000000      1.000000
  0.000000  0.000000  0.250000      1.000000
  0.250000  0.000000  0.250000      1.000000
  0.500000  0.000000  0.250000      1.000000
 -0.250000  0.000000  0.250000      1.000000
  0.000000  0.250000  0.250000      1.000000
  0.250000  0.250000  0.250000      1.000000
  0.500000  0.250000  0.250000      1.000000
 -0.250000  0.250000  0.250000      1.000000
  0.000000  0.500000  0.250000      1.000000
  0.250000  0.500000  0.250000      1.000000
  0.500000  0.500000  0.250000      1.000000
 -0.250000  0.500000  0.250000      1.000000
  0.000000 -0.250000  0.250000      1.000000
  0.250000 -0.250000  0.250000      1.000000
  0.500000 -0.250000  0.250000      1.000000
 -0.250000 -0.250000  0.250000      1.000000
  0.000000  0.000000  0.500000      1.000000
  0.250000  0.000000  0.500000      1.000000
  0.500000  0.000000  0.500000      1.000000
 -0.250000  0.000000  0.500000      1.000000
  0.000000  0.250000  0.500000      1.000000
  0.250000  0.250000  0.500000      1.000000
  0.500000  0.250000  0.500000      1.000000
 -0.250000  0.250000  0.500000      1.000000
  0.000000  0.500000  0.500000      1.000000
  0.250000  0.500000  0.500000      1.000000
  0.500000  0.500000  0.500000      1.000000
 -0.250000  0.500000  0.500000      1.000000
  0.000000 -0.250000  0.500000      1.000000
  0.250000 -0.250000  0.500000      1.000000
  0.500000 -0.250000  0.500000      1.000000
 -0.250000 -0.250000  0.500000      1.000000
  0.000000  0.000000 -0.250000      1.000000
  0.250000  0.000000 -0.250000      1.000000
  0.500000  0.000000 -0.250000      1.000000
 -0.250000  0.000000 -0.250000      1.000000
  0.000000  0.250000 -0.250000      1.000000
  0.250000  0.250000 -0.250000      1.000000
  0.500000  0.250000 -0.250000      1.000000
 -0.250000  0.250000 -0.250000      1.000000
  0.000000  0.500000 -0.250000      1.000000
  0.250000  0.500000 -0.250000      1.000000
  0.500000  0.500000 -0.250000      1.000000
 -0.250000  0.500000 -0.250000      1.000000
  0.000000 -0.250000 -0.250000      1.000000
  0.250000 -0.250000 -0.250000      1.000000
  0.500000 -0.250000 -0.250000      1.000000
 -0.250000 -0.250000 -0.250000      1.000000
 
 Following cartesian coordinates:
            Coordinates               Weight
  0.000000  0.000000  0.000000      1.000000
 -0.024181  0.024181  0.024181      1.000000
 -0.048362  0.048362  0.048362      1.000000
  0.024181 -0.024181 -0.024181      1.000000
  0.024181 -0.024181  0.024181      1.000000
  0.000000  0.000000  0.048362      1.000000
 -0.024181  0.024181  0.072543      1.000000
  0.048362 -0.048362  0.000000      1.000000
  0.048362 -0.048362  0.048362      1.000000
  0.024181 -0.024181  0.072543      1.000000
  0.000000  0.000000  0.096724      1.000000
  0.072543 -0.072543  0.024181      1.000000
 -0.024181  0.024181 -0.024181      1.000000
 -0.048362  0.048362  0.000000      1.000000
 -0.072543  0.072543  0.024181      1.000000
  0.000000  0.000000 -0.048362      1.000000
  0.024181  0.024181 -0.024181      1.000000
  0.000000  0.048362  0.000000      1.000000
 -0.024181  0.072543  0.024181      1.000000
  0.048362  0.000000 -0.048362      1.000000
  0.048362  0.000000  0.000000      1.000000
  0.024181  0.024181  0.024181      1.000000
  0.000000  0.048362  0.048362      1.000000
  0.072543 -0.024181 -0.024181      1.000000
  0.072543 -0.024181  0.024181      1.000000
  0.048362  0.000000  0.048362      1.000000
  0.024181  0.024181  0.072543      1.000000
  0.096724 -0.048362  0.000000      1.000000
  0.000000  0.048362 -0.048362      1.000000
 -0.024181  0.072543 -0.024181      1.000000
 -0.048362  0.096724  0.000000      1.000000
  0.024181  0.024181 -0.072543      1.000000
  0.048362  0.048362 -0.048362      1.000000
  0.024181  0.072543 -0.024181      1.000000
  0.000000  0.096724  0.000000      1.000000
  0.072543  0.024181 -0.072543      1.000000
  0.072543  0.024181 -0.024181      1.000000
  0.048362  0.048362  0.000000      1.000000
  0.024181  0.072543  0.024181      1.000000
  0.096724  0.000000 -0.048362      1.000000
  0.096724  0.000000  0.000000      1.000000
  0.072543  0.024181  0.024181      1.000000
  0.048362  0.048362  0.048362      1.000000
  0.120906 -0.024181 -0.024181      1.000000
  0.024181  0.072543 -0.072543      1.000000
  0.000000  0.096724 -0.048362      1.000000
 -0.024181  0.120906 -0.024181      1.000000
  0.048362  0.048362 -0.096724      1.000000
 -0.024181 -0.024181  0.024181      1.000000
 -0.048362  0.000000  0.048362      1.000000
 -0.072543  0.024181  0.072543      1.000000
  0.000000 -0.048362  0.000000      1.000000
  0.000000 -0.048362  0.048362      1.000000
 -0.024181 -0.024181  0.072543      1.000000
 -0.048362  0.000000  0.096724      1.000000
  0.024181 -0.072543  0.024181      1.000000
  0.024181 -0.072543  0.072543      1.000000
  0.000000 -0.048362  0.096724      1.000000
 -0.024181 -0.024181  0.120906      1.000000
  0.048362 -0.096724  0.048362      1.000000
 -0.048362  0.000000  0.000000      1.000000
 -0.072543  0.024181  0.024181      1.000000
 -0.096724  0.048362  0.048362      1.000000
 -0.024181 -0.024181 -0.024181      1.000000
 


--------------------------------------------------------------------------------------------------------




 Dimension of arrays:
   k-points           NKPTS =     64   k-points in BZ     NKDIM =     64   number of bands    NBANDS=     48
   number of dos      NEDOS =    301   number of ions     NIONS =     10
   non local maximal  LDIM  =      8   non local SUM 2l+1 LMDIM =     32
   total plane-waves  NPLWV =  46656
   max r-space proj   IRMAX =      1   max aug-charges    IRDMAX=  10716
   dimension x,y,z NGX =    36 NGY =   36 NGZ =   36
   dimension x,y,z NGXF=    72 NGYF=   72 NGZF=   72
   support grid    NGXF=    72 NGYF=   72 NGZF=   72
   ions per type =               1   1   2   6
   NGX,Y,Z   is equivalent  to a cutoff of   8.19,  8.19,  8.19 a.u.
   NGXF,Y,Z  is equivalent  to a cutoff of  16.37, 16.37, 16.37 a.u.

 SYSTEM =  unknown system                          
 POSCAR =  CsHgAgCl                                

 Startparameter for this run:
   NWRITE =      2    write-flag & timer
   PREC   = normal    normal or accurate (medium, high low for compatibility)
   ISTART =      0    job   : 0-new  1-cont  2-samecut
   ICHARG =      2    charge: 1-file 2-atom 10-const
   ISPIN  =      2    spin polarized calculation?
   LNONCOLLINEAR =      F non collinear calculations
   LSORBIT =      F    spin-orbit coupling
   INIWAV =      1    electr: 0-lowe 1-rand  2-diag
   LASPH  =      F    aspherical Exc in radial PAW
 Electronic Relaxation 1
   ENCUT  =  350.0 eV  25.72 Ry    5.07 a.u.  11.15 11.15 11.15*2*pi/ulx,y,z
   ENINI  =  350.0     initial cutoff
   ENAUG  =  528.8 eV  augmentation charge cutoff
   NELM   =    180;   NELMIN=  2; NELMDL= -5     # of ELM steps 
   EDIFF  = 0.1E-05   stopping-criterion for ELM
   LREAL  =      F    real-space projection
   NLSPLINE    = F    spline interpolate recip. space projectors
   LCOMPAT=      F    compatible to vasp.4.4
   GGA_COMPAT  = T    GGA compatible to vasp.4.4-vasp.4.6
   LMAXPAW     = -100 max onsite density
   LMAXMIX     =    2 max onsite mixed and CHGCAR
   VOSKOWN=      0    Vosko Wilk Nusair interpolation
   ROPT   =    0.00000   0.00000   0.00000   0.00000
 Ionic relaxation
   EDIFFG = 0.1E-04   stopping-criterion for IOM
   NSW    =      0    number of steps for IOM
   NBLOCK =      1;   KBLOCK =      1    inner block; outer block 
   IBRION =     -1    ionic relax: 0-MD 1-quasi-New 2-CG
   NFREE  =      0    steps in history (QN), initial steepest desc. (CG)
   ISIF   =      2    stress and relaxation
   IWAVPR =     10    prediction:  0-non 1-charg 2-wave 3-comb
   ISYM   =     -1    0-nonsym 1-usesym 2-fastsym
   LCORR  =      T    Harris-Foulkes like correction to forces

   POTIM  = 0.5000    time-step for ionic-motion
   TEIN   =    0.0    initial temperature
   TEBEG  =    0.0;   TEEND  =   0.0 temperature during run
   SMASS  =  -3.00    Nose mass-parameter (am)
   estimated Nose-frequenzy (Omega)   =  0.10E-29 period in steps = 0.13E+47 mass=  -0.122E-26a.u.
   SCALEE = 1.0000    scale energy and forces
   NPACO  =    256;   APACO  = 10.0  distance and # of slots for P.C.
   PSTRESS=    0.0 pullay stress

  Mass of Ions in am
   POMASS = 200.59107.87132.90 35.45
  Ionic Valenz
   ZVAL   =  12.00 11.00  9.00  7.00
  Atomic Wigner-Seitz radii
   RWIGS  =  -1.00 -1.00 -1.00 -1.00
  virtual crystal weights 
   VCA    =   1.00  1.00  1.00  1.00
   NELECT =      83.0000    total number of electrons
   NUPDOWN=      -1.0000    fix difference up-down

 DOS related values:
   EMIN   =  10.00;   EMAX   =-10.00  energy-range for DOS
   EFERMI =   0.00
   ISMEAR =     0;   SIGMA  =   0.00  broadening in eV -4-tet -1-fermi 0-gaus

 Electronic relaxation 2 (details)
   IALGO  =     58    algorithm
   LDIAG  =      T    sub-space diagonalisation (order eigenvalues)
   LSUBROT=      F    optimize rotation matrix (better conditioning)
   TURBO    =      0    0=normal 1=particle mesh
   IRESTART =      0    0=no restart 2=restart with 2 vectors
   NREBOOT  =      0    no. of reboots
   NMIN     =      0    reboot dimension
   EREF     =   0.00    reference energy to select bands
   IMIX   =      4    mixing-type and parameters
     AMIX     =   0.40;   BMIX     =  1.00
     AMIX_MAG =   1.60;   BMIX_MAG =  1.00
     AMIN     =   0.10
     WC   =   100.;   INIMIX=   1;  MIXPRE=   1;  MAXMIX= -45

 Intra band minimization:
   WEIMIN = 0.0000     energy-eigenvalue tresh-hold
   EBREAK =  0.52E-08  absolut break condition
   DEPER  =   0.30     relativ break condition  

   TIME   =   0.40     timestep for ELM

  volume/ion in A,a.u.               =      27.63       186.44
  Fermi-wavevector in a.u.,A,eV,Ry     =   1.096454  2.071998 16.357082  1.202212
  Thomas-Fermi vector in A             =   2.232796
 
 Write flags
   LWAVE        =      F    write WAVECAR
   LDOWNSAMPLE  =      F    k-point downsampling of WAVECAR
   LCHARG       =      T    write CHGCAR
   LVTOT        =      F    write LOCPOT, total local potential
   LVHAR        =      F    write LOCPOT, Hartree potential only
   LELF         =      F    write electronic localiz. function (ELF)
   LORBIT       =     10    0 simple, 1 ext, 2 COOP (PROOUT), +10 PAW based schemes


 Dipole corrections
   LMONO  =      F    monopole corrections only (constant potential shift)
   LDIPOL =      F    correct potential (dipole corrections)
   IDIPOL =      0    1-x, 2-y, 3-z, 4-all directions 
   EPSILON=  1.0000000 bulk dielectric constant

 Exchange correlation treatment:
   GGA     =    PE    GGA type
   LEXCH   =     8    internal setting for exchange type
   LIBXC   =     F    Libxc                    
   VOSKOWN =     0    Vosko Wilk Nusair interpolation
   LHFCALC =     F    Hartree Fock is set to
   LHFONE  =     F    Hartree Fock one center treatment
   AEXX    =    0.0000 exact exchange contribution

 Linear response parameters
   LEPSILON=     F    determine dielectric tensor
   LRPA    =     F    only Hartree local field effects (RPA)
   LNABLA  =     F    use nabla operator in PAW spheres
   LVEL    =     F    velocity operator in full k-point grid
   CSHIFT  =0.1000    complex shift for real part using Kramers Kronig
   OMEGAMAX=  -1.0    maximum frequency
   DEG_THRESHOLD= 0.2000000E-02 threshold for treating states as degnerate
   RTIME   =   -0.100 relaxation time in fs
  (WPLASMAI=    0.000 imaginary part of plasma frequency in eV, 0.658/RTIME)
   DFIELD  = 0.0000000 0.0000000 0.0000000 field for delta impulse in time
 
  Optional k-point grid parameters
   LKPOINTS_OPT  =     F    use optional k-point grid
   KPOINTS_OPT_MODE=     1    mode for optional k-point grid
 
 Orbital magnetization related:
   ORBITALMAG=     F  switch on orbital magnetization
   LCHIMAG   =     F  perturbation theory with respect to B field
   DQ        =  0.001000  dq finite difference perturbation B field
   LLRAUG    =     F  two centre corrections for induced B field



--------------------------------------------------------------------------------------------------------


 Static calculation
 charge density and potential will be updated during run
 spin polarized calculation
 Conjugate gradient for all bands (Freysoldt, et al. PRB 79, 241103 (2009))
 preconditioned conjugated gradient                                        
 perform sub-space diagonalisation
    before iterative eigenvector-optimisation
 modified Broyden-mixing scheme, WC =      100.0
 initial mixing is a Kerker type mixing with AMIX =  0.4000 and BMIX =      1.0000
 Hartree-type preconditioning will be used
 using additional bands            6
 reciprocal scheme for non local part
 use partial core corrections
 no Harris-corrections to forces 
 use gradient corrections 
 use of overlap-Matrix (Vanderbilt PP)
 Gauss-broadening in eV      SIGMA  =   0.00


--------------------------------------------------------------------------------------------------------


  energy-cutoff  :      350.00
  volume of cell :      276.27
      direct lattice vectors                 reciprocal lattice vectors
     0.000000000  5.169323800  5.169323800    -0.096724450  0.096724450  0.096724450
     5.169323800  0.000000000  5.169323800     0.096724450 -0.096724450  0.096724450
     5.169323800  5.169323800  0.000000000     0.096724450  0.096724450 -0.096724450

  length of vectors
     7.310527826  7.310527826  7.310527826     0.167531661  0.167531661  0.167531661


 
 k-points in units of 2pi/SCALE and weight: k-points                                
   0.00000000  0.00000000  0.00000000       0.016
  -0.02418111  0.02418111  0.02418111       0.016
  -0.04836222  0.04836222  0.04836222       0.016
   0.02418111 -0.02418111 -0.02418111       0.016
   0.02418111 -0.02418111  0.02418111       0.016
   0.00000000  0.00000000  0.04836222       0.016
  -0.02418111  0.02418111  0.07254334       0.016
   0.04836222 -0.04836222  0.00000000       0.016
   0.04836222 -0.04836222  0.04836222       0.016
   0.02418111 -0.02418111  0.07254334       0.016
   0.00000000  0.00000000  0.09672445       0.016
   0.07254334 -0.07254334  0.02418111       0.016
  -0.02418111  0.02418111 -0.02418111       0.016
  -0.04836222  0.04836222  0.00000000       0.016
  -0.07254334  0.07254334  0.02418111       0.016
   0.00000000  0.00000000 -0.04836222       0.016
   0.02418111  0.02418111 -0.02418111       0.016
   0.00000000  0.04836222  0.00000000       0.016
  -0.02418111  0.07254334  0.02418111       0.016
   0.04836222  0.00000000 -0.04836222       0.016
   0.04836222  0.00000000  0.00000000       0.016
   0.02418111  0.02418111  0.02418111       0.016
   0.00000000  0.04836222  0.04836222       0.016
   0.07254334 -0.02418111 -0.02418111       0.016
   0.07254334 -0.02418111  0.02418111       0.016
   0.04836222  0.00000000  0.04836222       0.016
   0.02418111  0.02418111  0.07254334       0.016
   0.09672445 -0.04836222  0.00000000       0.016
   0.00000000  0.04836222 -0.04836222       0.016
  -0.02418111  0.07254334 -0.02418111       0.016
  -0.04836222  0.09672445  0.00000000       0.016
   0.02418111  0.02418111 -0.07254334       0.016
   0.04836222  0.04836222 -0.04836222       0.016
   0.02418111  0.07254334 -0.02418111       0.016
   0.00000000  0.09672445  0.00000000       0.016
   0.07254334  0.02418111 -0.07254334       0.016
   0.07254334  0.02418111 -0.02418111       0.016
   0.04836222  0.04836222  0.00000000       0.016
   0.02418111  0.07254334  0.02418111       0.016
   0.09672445  0.00000000 -0.04836222       0.016
   0.09672445  0.00000000  0.00000000       0.016
   0.07254334  0.02418111  0.02418111       0.016
   0.04836222  0.04836222  0.04836222       0.016
   0.12090556 -0.02418111 -0.02418111       0.016
   0.02418111  0.07254334 -0.07254334       0.016
   0.00000000  0.09672445 -0.04836222       0.016
  -0.02418111  0.12090556 -0.02418111       0.016
   0.04836222  0.04836222 -0.09672445       0.016
  -0.02418111 -0.02418111  0.02418111       0.016
  -0.04836222  0.00000000  0.04836222       0.016
  -0.07254334  0.02418111  0.07254334       0.016
   0.00000000 -0.04836222  0.00000000       0.016
   0.00000000 -0.04836222  0.04836222       0.016
  -0.02418111 -0.02418111  0.07254334       0.016
  -0.04836222  0.00000000  0.09672445       0.016
   0.02418111 -0.07254334  0.02418111       0.016
   0.02418111 -0.07254334  0.07254334       0.016
   0.00000000 -0.04836222  0.09672445       0.016
  -0.02418111 -0.02418111  0.12090556       0.016
   0.04836222 -0.09672445  0.04836222       0.016
  -0.04836222  0.00000000  0.00000000       0.016
  -0.07254334  0.02418111  0.02418111       0.016
  -0.09672445  0.04836222  0.04836222       0.016
  -0.02418111 -0.02418111 -0.02418111       0.016
 
 k-points in reciprocal lattice and weights: k-points                                
   0.00000000  0.00000000  0.00000000       0.016
   0.25000000  0.00000000  0.00000000       0.016
   0.50000000  0.00000000  0.00000000       0.016
  -0.25000000  0.00000000  0.00000000       0.016
   0.00000000  0.25000000  0.00000000       0.016
   0.25000000  0.25000000  0.00000000       0.016
   0.50000000  0.25000000  0.00000000       0.016
  -0.25000000  0.25000000  0.00000000       0.016
   0.00000000  0.50000000  0.00000000       0.016
   0.25000000  0.50000000  0.00000000       0.016
   0.50000000  0.50000000  0.00000000       0.016
  -0.25000000  0.50000000  0.00000000       0.016
   0.00000000 -0.25000000  0.00000000       0.016
   0.25000000 -0.25000000  0.00000000       0.016
   0.50000000 -0.25000000  0.00000000       0.016
  -0.25000000 -0.25000000  0.00000000       0.016
   0.00000000  0.00000000  0.25000000       0.016
   0.25000000  0.00000000  0.25000000       0.016
   0.50000000  0.00000000  0.25000000       0.016
  -0.25000000  0.00000000  0.25000000       0.016
   0.00000000  0.25000000  0.25000000       0.016
   0.25000000  0.25000000  0.25000000       0.016
   0.50000000  0.25000000  0.25000000       0.016
  -0.25000000  0.25000000  0.25000000       0.016
   0.00000000  0.50000000  0.25000000       0.016
   0.25000000  0.50000000  0.25000000       0.016
   0.50000000  0.50000000  0.25000000       0.016
  -0.25000000  0.50000000  0.25000000       0.016
   0.00000000 -0.25000000  0.25000000       0.016
   0.25000000 -0.25000000  0.25000000       0.016
   0.50000000 -0.25000000  0.25000000       0.016
  -0.25000000 -0.25000000  0.25000000       0.016
   0.00000000  0.00000000  0.50000000       0.016
   0.25000000  0.00000000  0.50000000       0.016
   0.50000000  0.00000000  0.50000000       0.016
  -0.25000000  0.00000000  0.50000000       0.016
   0.00000000  0.25000000  0.50000000       0.016
   0.25000000  0.25000000  0.50000000       0.016
   0.50000000  0.25000000  0.50000000       0.016
  -0.25000000  0.25000000  0.50000000       0.016
   0.00000000  0.50000000  0.50000000       0.016
   0.25000000  0.50000000  0.50000000       0.016
   0.50000000  0.50000000  0.50000000       0.016
  -0.25000000  0.50000000  0.50000000       0.016
   0.00000000 -0.25000000  0.50000000       0.016
   0.25000000 -0.25000000  0.50000000       0.016
   0.50000000 -0.25000000  0.50000000       0.016
  -0.25000000 -0.25000000  0.50000000       0.016
   0.00000000  0.00000000 -0.25000000       0.016
   0.25000000  0.00000000 -0.25000000       0.016
   0.50000000  0.00000000 -0.25000000       0.016
  -0.25000000  0.00000000 -0.25000000       0.016
   0.00000000  0.25000000 -0.25000000       0.016
   0.25000000  0.25000000 -0.25000000       0.016
   0.50000000  0.25000000 -0.25000000       0.016
  -0.25000000  0.25000000 -0.25000000       0.016
   0.00000000  0.50000000 -0.25000000       0.016
   0.25000000  0.50000000 -0.25000000       0.016
   0.50000000  0.50000000 -0.25000000       0.016
  -0.25000000  0.50000000 -0.25000000       0.016
   0.00000000 -0.25000000 -0.25000000       0.016
   0.25000000 -0.25000000 -0.25000000       0.016
   0.50000000 -0.25000000 -0.25000000       0.016
  -0.25000000 -0.25000000 -0.25000000       0.016
 
 position of ions in fractional coordinates (direct lattice) 
   0.00000000  0.00000000  0.00000000
   0.50000000  0.50000000  0.50000000
   0.25000000  0.25000000  0.25000000
   0.75000000  0.75000000  0.75000000
   0.74676506  0.25323494  0.25323494
   0.25323494  0.74676506  0.74676506
   0.25323494  0.74676506  0.25323494
   0.74676506  0.25323494  0.74676506
   0.25323494  0.25323494  0.74676506
   0.74676506  0.74676506  0.25323494
 
 position of ions in cartesian coordinates  (Angst):
   0.00000000  0.00000000  0.00000000
   5.16932380  5.16932380  5.16932380
   2.58466190  2.58466190  2.58466190
   7.75398570  7.75398570  7.75398570
   2.61810677  5.16932380  5.16932380
   7.72054083  5.16932380  5.16932380
   5.16932380  2.61810677  5.16932380
   5.16932380  7.72054083  5.16932380
   5.16932380  5.16932380  2.61810677
   5.16932380  5.16932380  7.72054083
 


--------------------------------------------------------------------------------------------------------


 k-point   1 :   0.0000 0.0000 0.0000  plane waves:    4111
 k-point   2 :   0.2500 0.0000 0.0000  plane waves:    4107
 k-point   3 :   0.5000 0.0000 0.0000  plane waves:    4092
 k-point   4 :  -0.2500 0.0000 0.0000  plane waves:    4107
 k-point   5 :   0.0000 0.2500 0.0000  plane waves:    4107
 k-point   6 :   0.2500 0.2500 0.0000  plane waves:    4088
 k-point   7 :   0.5000 0.2500 0.0000  plane waves:    4111
 k-point   8 :  -0.2500 0.2500 0.0000  plane waves:    4121
 k-point   9 :   0.0000 0.5000 0.0000  plane waves:    4092
 k-point  10 :   0.2500 0.5000 0.0000  plane waves:    4111
 k-point  11 :   0.5000 0.5000 0.0000  plane waves:    4088
 k-point  12 :  -0.2500 0.5000 0.0000  plane waves:    4111
 k-point  13 :   0.0000-0.2500 0.0000  plane waves:    4107
 k-point  14 :   0.2500-0.2500 0.0000  plane waves:    4121
 k-point  15 :   0.5000-0.2500 0.0000  plane waves:    4111
 k-point  16 :  -0.2500-0.2500 0.0000  plane waves:    4088
 k-point  17 :   0.0000 0.0000 0.2500  plane waves:    4107
 k-point  18 :   0.2500 0.0000 0.2500  plane waves:    4088
 k-point  19 :   0.5000 0.0000 0.2500  plane waves:    4111
 k-point  20 :  -0.2500 0.0000 0.2500  plane waves:    4121
 k-point  21 :   0.0000 0.2500 0.2500  plane waves:    4088
 k-point  22 :   0.2500 0.2500 0.2500  plane waves:    4107
 k-point  23 :   0.5000 0.2500 0.2500  plane waves:    4121
 k-point  24 :  -0.2500 0.2500 0.2500  plane waves:    4111
 k-point  25 :   0.0000 0.5000 0.2500  plane waves:    4111
 k-point  26 :   0.2500 0.5000 0.2500  plane waves:    4121
 k-point  27 :   0.5000 0.5000 0.2500  plane waves:    4111
 k-point  28 :  -0.2500 0.5000 0.2500  plane waves:    4128
 k-point  29 :   0.0000-0.2500 0.2500  plane waves:    4121
 k-point  30 :   0.2500-0.2500 0.2500  plane waves:    4111
 k-point  31 :   0.5000-0.2500 0.2500  plane waves:    4128
 k-point  32 :  -0.2500-0.2500 0.2500  plane waves:    4111
 k-point  33 :   0.0000 0.0000 0.5000  plane waves:    4092
 k-point  34 :   0.2500 0.0000 0.5000  plane waves:    4111
 k-point  35 :   0.5000 0.0000 0.5000  plane waves:    4088
 k-point  36 :  -0.2500 0.0000 0.5000  plane waves:    4111
 k-point  37 :   0.0000 0.2500 0.5000  plane waves:    4111
 k-point  38 :   0.2500 0.2500 0.5000  plane waves:    4121
 k-point  39 :   0.5000 0.2500 0.5000  plane waves:    4111
 k-point  40 :  -0.2500 0.2500 0.5000  plane waves:    4128
 k-point  41 :   0.0000 0.5000 0.5000  plane waves:    4088
 k-point  42 :   0.2500 0.5000 0.5000  plane waves:    4111
 k-point  43 :   0.5000 0.5000 0.5000  plane waves:    4092
 k-point  44 :  -0.2500 0.5000 0.5000  plane waves:    4111
 k-point  45 :   0.0000-0.2500 0.5000  plane waves:    4111
 k-point  46 :   0.2500-0.2500 0.5000  plane waves:    4128
 k-point  47 :   0.5000-0.2500 0.5000  plane waves:    4111
 k-point  48 :  -0.2500-0.2500 0.5000  plane waves:    4121
 k-point  49 :   0.0000 0.0000-0.2500  plane waves:    4107
 k-point  50 :   0.2500 0.0000-0.2500  plane waves:    4121
 k-point  51 :   0.5000 0.0000-0.2500  plane waves:    4111
 k-point  52 :  -0.2500 0.0000-0.2500  plane waves:    4088
 k-point  53 :   0.0000 0.2500-0.2500  plane waves:    4121
 k-point  54 :   0.2500 0.2500-0.2500  plane waves:    4111
 k-point  55 :   0.5000 0.2500-0.2500  plane waves:    4128
 k-point  56 :  -0.2500 0.2500-0.2500  plane waves:    4111
 k-point  57 :   0.0000 0.5000-0.2500  plane waves:    4111
 k-point  58 :   0.2500 0.5000-0.2500  plane waves:    4128
 k-point  59 :   0.5000 0.5000-0.2500  plane waves:    4111
 k-point  60 :  -0.2500 0.5000-0.2500  plane waves:    4121
 k-point  61 :   0.0000-0.2500-0.2500  plane waves:    4088
 k-point  62 :   0.2500-0.2500-0.2500  plane waves:    4111
 k-point  63 :   0.5000-0.2500-0.2500  plane waves:    4121
 k-point  64 :  -0.2500-0.2500-0.2500  plane waves:    4107

 maximum and minimum number of plane-waves per node :      4128     4088

 maximum number of plane-waves:      4128
 maximum index in each direction: 
   IXMAX=   11   IYMAX=   11   IZMAX=   11
   IXMIN=  -11   IYMIN=  -11   IZMIN=  -11


 serial   3D FFT for wavefunctions
 parallel 3D FFT for charge:
    minimum data exchange during FFTs selected (reduces bandwidth)


 total amount of memory used by VASP MPI-rank0   470122. kBytes
=======================================================================

   base      :      30000. kBytes
   nonl-proj :     271193. kBytes
   fftplans  :       1814. kBytes
   grid      :       8356. kBytes
   one-center:        983. kBytes
   wavefun   :     157776. kBytes
 
     INWAV:  cpu time      0.0000: real time      0.0000
 Broyden mixing: mesh for mixing (old mesh)
   NGX = 23   NGY = 23   NGZ = 23
  (NGX  = 72   NGY  = 72   NGZ  = 72)
  gives a total of  12167 points

 initial charge density was supplied:
 charge density of overlapping atoms calculated
 number of electron      83.0000000 magnetization      -3.4000000
 keeping initial charge density in first step


--------------------------------------------------------------------------------------------------------


 Maximum index for augmentation-charges         1255 (set IRDMAX)


--------------------------------------------------------------------------------------------------------


 First call to EWALD:  gamma=   0.272
 Maximum number of real-space cells 3x 3x 3
 Maximum number of reciprocal cells 3x 3x 3

    FEWALD:  cpu time      0.0043: real time      0.0043


--------------------------------------- Iteration      1(   1)  ---------------------------------------


    POTLOK:  cpu time      0.0496: real time      0.0630
    SETDIJ:  cpu time      0.0100: real time      0.0142
    TRIAL :  cpu time      1.1383: real time      1.2091
    CORREC:  cpu time      0.0003: real time      0.0003
    --------------------------------------------
      LOOP:  cpu time      1.2492: real time      1.3404

 eigenvalue-minimisations  : 12288
 total energy-change (2. order) : 0.6991438E+03  (-0.2916664E+04)
 number of electron      83.0000000 magnetization      -3.4000000
 augmentation part       83.0000000 magnetization      -3.4000000

 Free energy of the ion-electron system (eV)
  ---------------------------------------------------
  alpha Z        PSCENC =       226.04517191
  Ewald energy   TEWEN  =     -4531.05705461
  -Hartree energ DENC   =     -1371.10525797
  -exchange      EXHF   =         0.00000000
  -V(xc)+E(xc)   XCENC  =        46.46733469
  PAW double counting   =      4964.13238460    -4777.96609482
  entropy T*S    EENTRO =        -0.00000000
  eigenvalues    EBANDS =       390.66588759
  atomic energy  EATOM  =      5751.96140765
  ---------------------------------------------------
  free energy    TOTEN  =       699.14377904 eV

  energy without entropy =      699.14377904  energy(sigma->0) =      699.14377904


--------------------------------------------------------------------------------------------------------




--------------------------------------- Iteration      1(   2)  ---------------------------------------


    TRIAL :  cpu time      1.3418: real time      1.3402
    CORREC:  cpu time      0.0003: real time      0.0003
    --------------------------------------------
      LOOP:  cpu time      1.3425: real time      1.3409

 eigenvalue-minimisations  : 16544
 total energy-change (2. order) :-0.6596059E+03  (-0.6478280E+03)
 number of electron      83.0000000 magnetization      -3.4000000
 augmentation part       83.0000000 magnetization      -3.4000000

 Free energy of the ion-electron system (eV)
  ---------------------------------------------------
  alpha Z        PSCENC =       226.04517191
  Ewald energy   TEWEN  =     -4531.05705461
  -Hartree energ DENC   =     -1371.10525797
  -exchange      EXHF   =         0.00000000
  -V(xc)+E(xc)   XCENC  =        46.46733469
  PAW double counting   =      4964.13238460    -4777.96609482
  entropy T*S    EENTRO =        -0.00000000
  eigenvalues    EBANDS =      -268.94004477
  atomic energy  EATOM  =      5751.96140765
  ---------------------------------------------------
  free energy    TOTEN  =        39.53784668 eV

  energy without entropy =       39.53784668  energy(sigma->0) =       39.53784668


--------------------------------------------------------------------------------------------------------




--------------------------------------- Iteration      1(   3)  ---------------------------------------


    TRIAL :  cpu time      1.2623: real time      1.2608
    CORREC:  cpu time      0.0003: real time      0.0003
    --------------------------------------------
      LOOP:  cpu time      1.2627: real time      1.2612

 eigenvalue-minimisations  : 15288
 total energy-change (2. order) :-0.6893607E+02  (-0.6816438E+02)
 number of electron      83.0000000 magnetization      -3.4000000
 augmentation part       83.0000000 magnetization      -3.4000000

 Free energy of the ion-electron system (eV)
  ---------------------------------------------------
  alpha Z        PSCENC =       226.04517191
  Ewald energy   TEWEN  =     -4531.05705461
  -Hartree energ DENC   =     -1371.10525797
  -exchange      EXHF   =         0.00000000
  -V(xc)+E(xc)   XCENC  =        46.46733469
  PAW double counting   =      4964.13238460    -4777.96609482
  entropy T*S    EENTRO =        -0.00000000
  eigenvalues    EBANDS =      -337.87611280
  atomic energy  EATOM  =      5751.96140765
  ---------------------------------------------------
  free energy    TOTEN  =       -29.39822135 eV

  energy without entropy =      -29.39822135  energy(sigma->0) =      -29.39822135


--------------------------------------------------------------------------------------------------------




--------------------------------------- Iteration      1(   4)  ---------------------------------------


    TRIAL :  cpu time      1.2953: real time      1.2955
    CORREC:  cpu time      0.0005: real time      0.0005
    --------------------------------------------
      LOOP:  cpu time      1.2959: real time      1.2961

 eigenvalue-minimisations  : 15488
 total energy-change (2. order) :-0.2443633E+01  (-0.2436139E+01)
 number of electron      83.0000000 magnetization      -3.4000000
 augmentation part       83.0000000 magnetization      -3.4000000

 Free energy of the ion-electron system (eV)
  ---------------------------------------------------
  alpha Z        PSCENC =       226.04517191
  Ewald energy   TEWEN  =     -4531.05705461
  -Hartree energ DENC   =     -1371.10525797
  -exchange      EXHF   =         0.00000000
  -V(xc)+E(xc)   XCENC  =        46.46733469
  PAW double counting   =      4964.13238460    -4777.96609482
  entropy T*S    EENTRO =        -0.00000431
  eigenvalues    EBANDS =      -340.31974126
  atomic energy  EATOM  =      5751.96140765
  ---------------------------------------------------
  free energy    TOTEN  =       -31.84185412 eV

  energy without entropy =      -31.84184981  energy(sigma->0) =      -31.84185197


--------------------------------------------------------------------------------------------------------




--------------------------------------- Iteration      1(   5)  ---------------------------------------


    TRIAL :  cpu time      1.3785: real time      1.3769
    CORREC:  cpu time      0.0005: real time      0.0005
    CHARGE:  cpu time      0.0405: real time      0.0404
    --------------------------------------------
      LOOP:  cpu time      1.4197: real time      1.4179

 eigenvalue-minimisations  : 16832
 total energy-change (2. order) :-0.1107232E+00  (-0.1107003E+00)
 number of electron      82.9999950 magnetization      -0.9999998
 augmentation part        0.7419535 magnetization      -0.5365094

 Free energy of the ion-electron system (eV)
  ---------------------------------------------------
  alpha Z        PSCENC =       226.04517191
  Ewald energy   TEWEN  =     -4531.05705461
  -Hartree energ DENC   =     -1371.10525797
  -exchange      EXHF   =         0.00000000
  -V(xc)+E(xc)   XCENC  =        46.46733469
  PAW double counting   =      4964.13238460    -4777.96609482
  entropy T*S    EENTRO =        -0.00000517
  eigenvalues    EBANDS =      -340.43046356
  atomic energy  EATOM  =      5751.96140765
  ---------------------------------------------------
  free energy    TOTEN  =       -31.95257728 eV

  energy without entropy =      -31.95257211  energy(sigma->0) =      -31.95257470


--------------------------------------------------------------------------------------------------------




--------------------------------------- Iteration      1(   6)  ---------------------------------------


    POTLOK:  cpu time      0.0446: real time      0.0446
    SETDIJ:  cpu time      0.0078: real time      0.0078
    TRIAL :  cpu time      0.6326: real time      0.6355
    CORREC:  cpu time      0.1810: real time      0.1814
    CHARGE:  cpu time      0.0388: real time      0.0387
    --------------------------------------------
      LOOP:  cpu time      0.9052: real time      0.9084

 eigenvalue-minimisations  :     0
 total energy-change (2. order) : 0.8937435E+01  (-0.5934171E+01)
 number of electron      82.9999948 magnetization      -0.9999999
 augmentation part        1.4740387 magnetization      -0.4211964

 Free energy of the ion-electron system (eV)
  ---------------------------------------------------
  alpha Z        PSCENC =       226.04517191
  Ewald energy   TEWEN  =     -4531.05705461
  -Hartree energ DENC   =     -1310.38510453
  -exchange      EXHF   =         0.00000000
  -V(xc)+E(xc)   XCENC  =        47.27164172
  PAW double counting   =      5985.13438559    -5800.22375644
  entropy T*S    EENTRO =        -0.00000489
  eigenvalues    EBANDS =      -391.76182849
  atomic energy  EATOM  =      5751.96140765
  ---------------------------------------------------
  free energy    TOTEN  =       -23.01514237 eV

  energy without entropy =      -23.01513748  energy(sigma->0) =      -23.01513993


--------------------------------------------------------------------------------------------------------




--------------------------------------- Iteration      1(   7)  ---------------------------------------


    POTLOK:  cpu time      0.0447: real time      0.0447
    SETDIJ:  cpu time      0.0084: real time      0.0084
    TRIAL :  cpu time      0.6234: real time      0.6225
    CORREC:  cpu time      0.1820: real time      0.1818
    CHARGE:  cpu time      0.0390: real time      0.0388
    --------------------------------------------
      LOOP:  cpu time      0.8978: real time      0.8967

 eigenvalue-minimisations  :     0
 total energy-change (2. order) :-0.5908293E+01  (-0.1259014E+01)
 number of electron      82.9999948 magnetization      -0.6562499
 augmentation part        1.4298454 magnetization      -0.1926172

 Free energy of the ion-electron system (eV)
  ---------------------------------------------------
  alpha Z        PSCENC =       226.04517191
  Ewald energy   TEWEN  =     -4531.05705461
  -Hartree energ DENC   =     -1353.19168830
  -exchange      EXHF   =         0.00000000
  -V(xc)+E(xc)   XCENC  =        47.02050913
  PAW double counting   =      6126.20492693    -5942.90622293
  entropy T*S    EENTRO =        -0.00000002
  eigenvalues    EBANDS =      -353.00048013
  atomic energy  EATOM  =      5751.96140765
  ---------------------------------------------------
  free energy    TOTEN  =       -28.92343523 eV

  energy without entropy =      -28.92343522  energy(sigma->0) =      -28.92343523


--------------------------------------------------------------------------------------------------------




--------------------------------------- Iteration      1(   8)  ---------------------------------------


    POTLOK:  cpu time      0.0445: real time      0.0445
    SETDIJ:  cpu time      0.0077: real time      0.0077
    TRIAL :  cpu time      0.6168: real time      0.6161
    CORREC:  cpu time      0.1814: real time      0.1812
    CHARGE:  cpu time      0.0388: real time      0.0387
    --------------------------------------------
      LOOP:  cpu time      0.8896: real time      0.8885

 eigenvalue-minimisations  :     0
 total energy-change (2. order) : 0.1670114E+00  (-0.1086558E+01)
 number of electron      82.9999948 magnetization      -0.6562500
 augmentation part        1.3927645 magnetization      -0.1811876

 Free energy of the ion-electron system (eV)
  ---------------------------------------------------
  alpha Z        PSCENC =       226.04517191
  Ewald energy   TEWEN  =     -4531.05705461
  -Hartree energ DENC   =     -1346.47407331
  -exchange      EXHF   =         0.00000000
  -V(xc)+E(xc)   XCENC  =        45.65628497
  PAW double counting   =      6356.12920446    -6172.52456644
  entropy T*S    EENTRO =        -0.00000114
  eigenvalues    EBANDS =      -358.49279842
  atomic energy  EATOM  =      5751.96140765
  ---------------------------------------------------
  free energy    TOTEN  =       -28.75642381 eV

  energy without entropy =      -28.75642267  energy(sigma->0) =      -28.75642324


--------------------------------------------------------------------------------------------------------




--------------------------------------- Iteration      1(   9)  ---------------------------------------


    POTLOK:  cpu time      0.0434: real time      0.0434
    SETDIJ:  cpu time      0.0075: real time      0.0075
    TRIAL :  cpu time      0.6232: real time      0.6225
    CORREC:  cpu time      0.1846: real time      0.1843
    CHARGE:  cpu time      0.0393: real time      0.0391
    --------------------------------------------
      LOOP:  cpu time      0.8983: real time      0.8972

 eigenvalue-minimisations  :     0
 total energy-change (2. order) :-0.1083795E+01  (-0.8689209E-01)
 number of electron      82.9999948 magnetization      -0.6562500
 augmentation part        1.3649027 magnetization      -0.1827312

 Free energy of the ion-electron system (eV)
  ---------------------------------------------------
  alpha Z        PSCENC =       226.04517191
  Ewald energy   TEWEN  =     -4531.05705461
  -Hartree energ DENC   =     -1353.59685479
  -exchange      EXHF   =         0.00000000
  -V(xc)+E(xc)   XCENC  =        46.21843085
  PAW double counting   =      6282.52056603    -6098.47545599
  entropy T*S    EENTRO =        -0.00000017
  eigenvalues    EBANDS =      -353.45642834
  atomic energy  EATOM  =      5751.96140765
  ---------------------------------------------------
  free energy    TOTEN  =       -29.84021843 eV

  energy without entropy =      -29.84021826  energy(sigma->0) =      -29.84021834


--------------------------------------------------------------------------------------------------------




--------------------------------------- Iteration      1(  10)  ---------------------------------------


    POTLOK:  cpu time      0.0445: real time      0.0445
    SETDIJ:  cpu time      0.0077: real time      0.0077
    TRIAL :  cpu time      0.6187: real time      0.6180
    CORREC:  cpu time      0.1809: real time      0.1806
    CHARGE:  cpu time      0.0385: real time      0.0385
    --------------------------------------------
      LOOP:  cpu time      0.8907: real time      0.8897

 eigenvalue-minimisations  :     0
 total energy-change (2. order) :-0.8687568E-01  (-0.4888331E-01)
 number of electron      82.9999948 magnetization      -0.5937500
 augmentation part        1.4667693 magnetization      -0.1437170

 Free energy of the ion-electron system (eV)
  ---------------------------------------------------
  alpha Z        PSCENC =       226.04517191
  Ewald energy   TEWEN  =     -4531.05705461
  -Hartree energ DENC   =     -1353.36631140
  -exchange      EXHF   =         0.00000000
  -V(xc)+E(xc)   XCENC  =        46.46007840
  PAW double counting   =      6238.43453565    -6054.28032596
  entropy T*S    EENTRO =        -0.00000281
  eigenvalues    EBANDS =      -354.12459558
  atomic energy  EATOM  =      5751.96140765
  ---------------------------------------------------
  free energy    TOTEN  =       -29.92709411 eV

  energy without entropy =      -29.92709130  energy(sigma->0) =      -29.92709271


--------------------------------------------------------------------------------------------------------




--------------------------------------- Iteration      1(  11)  ---------------------------------------


    POTLOK:  cpu time      0.0444: real time      0.0443
    SETDIJ:  cpu time      0.0077: real time      0.0077
    TRIAL :  cpu time      0.6281: real time      0.6274
    CORREC:  cpu time      0.1803: real time      0.1800
    CHARGE:  cpu time      0.0406: real time      0.0406
    --------------------------------------------
      LOOP:  cpu time      0.9014: real time      0.9003

 eigenvalue-minimisations  :     0
 total energy-change (2. order) : 0.2914835E-01  (-0.5473513E-01)
 number of electron      82.9999948 magnetization      -0.5937500
 augmentation part        1.3829933 magnetization      -0.1434503

 Free energy of the ion-electron system (eV)
  ---------------------------------------------------
  alpha Z        PSCENC =       226.04517191
  Ewald energy   TEWEN  =     -4531.05705461
  -Hartree energ DENC   =     -1359.08701204
  -exchange      EXHF   =         0.00000000
  -V(xc)+E(xc)   XCENC  =        46.58276908
  PAW double counting   =      6192.79448501    -6008.86183471
  entropy T*S    EENTRO =        -0.00000281
  eigenvalues    EBANDS =      -348.27587524
  atomic energy  EATOM  =      5751.96140765
  ---------------------------------------------------
  free energy    TOTEN  =       -29.89794576 eV

  energy without entropy =      -29.89794295  energy(sigma->0) =      -29.89794435


--------------------------------------------------------------------------------------------------------




--------------------------------------- Iteration      1(  12)  ---------------------------------------


    POTLOK:  cpu time      0.0453: real time      0.0452
    SETDIJ:  cpu time      0.0056: real time      0.0056
    TRIAL :  cpu time      0.6289: real time      0.6281
    CORREC:  cpu time      0.1805: real time      0.1802
    CHARGE:  cpu time      0.0384: real time      0.0384
    --------------------------------------------
      LOOP:  cpu time      0.8990: real time      0.8979

 eigenvalue-minimisations  :     0
 total energy-change (2. order) :-0.5478148E-01  (-0.5918052E-02)
 number of electron      82.9999948 magnetization      -0.5937500
 augmentation part        1.3848473 magnetization      -0.1398060

 Free energy of the ion-electron system (eV)
  ---------------------------------------------------
  alpha Z        PSCENC =       226.04517191
  Ewald energy   TEWEN  =     -4531.05705461
  -Hartree energ DENC   =     -1353.92836387
  -exchange      EXHF   =         0.00000000
  -V(xc)+E(xc)   XCENC  =        46.46420131
  PAW double counting   =      6200.14268208    -6015.97062145
  entropy T*S    EENTRO =        -0.00000297
  eigenvalues    EBANDS =      -353.61014746
  atomic energy  EATOM  =      5751.96140765
  ---------------------------------------------------
  free energy    TOTEN  =       -29.95272723 eV

  energy without entropy =      -29.95272426  energy(sigma->0) =      -29.95272575


--------------------------------------------------------------------------------------------------------




--------------------------------------- Iteration      1(  13)  ---------------------------------------


    POTLOK:  cpu time      0.0447: real time      0.0446
    SETDIJ:  cpu time      0.0076: real time      0.0076
    TRIAL :  cpu time      0.6207: real time      0.6200
    CORREC:  cpu time      0.1830: real time      0.1828
    CHARGE:  cpu time      0.0388: real time      0.0388
    --------------------------------------------
      LOOP:  cpu time      0.8952: real time      0.8941

 eigenvalue-minimisations  :     0
 total energy-change (2. order) :-0.6001273E-02  (-0.9338006E-03)
 number of electron      82.9999948 magnetization      -0.5937500
 augmentation part        1.3852708 magnetization      -0.1388341

 Free energy of the ion-electron system (eV)
  ---------------------------------------------------
  alpha Z        PSCENC =       226.04517191
  Ewald energy   TEWEN  =     -4531.05705461
  -Hartree energ DENC   =     -1354.75258705
  -exchange      EXHF   =         0.00000000
  -V(xc)+E(xc)   XCENC  =        46.44433795
  PAW double counting   =      6211.79564071    -6027.65622577
  entropy T*S    EENTRO =        -0.00000281
  eigenvalues    EBANDS =      -352.73941632
  atomic energy  EATOM  =      5751.96140765
  ---------------------------------------------------
  free energy    TOTEN  =       -29.95872851 eV

  energy without entropy =      -29.95872570  energy(sigma->0) =      -29.95872710


--------------------------------------------------------------------------------------------------------




--------------------------------------- Iteration      1(  14)  ---------------------------------------


    POTLOK:  cpu time      0.0448: real time      0.0447
    SETDIJ:  cpu time      0.0078: real time      0.0078
    TRIAL :  cpu time      0.6201: real time      0.6193
    CORREC:  cpu time      0.1820: real time      0.1817
    CHARGE:  cpu time      0.0392: real time      0.0392
    --------------------------------------------
      LOOP:  cpu time      0.8941: real time      0.8929

 eigenvalue-minimisations  :     0
 total energy-change (2. order) :-0.6838638E-03  (-0.1339839E-03)
 number of electron      82.9999948 magnetization      -0.5937500
 augmentation part        1.3847913 magnetization      -0.1384802

 Free energy of the ion-electron system (eV)
  ---------------------------------------------------
  alpha Z        PSCENC =       226.04517191
  Ewald energy   TEWEN  =     -4531.05705461
  -Hartree energ DENC   =     -1354.85586779
  -exchange      EXHF   =         0.00000000
  -V(xc)+E(xc)   XCENC  =        46.44076323
  PAW double counting   =      6215.04481577    -6030.91479709
  entropy T*S    EENTRO =        -0.00000281
  eigenvalues    EBANDS =      -352.62384863
  atomic energy  EATOM  =      5751.96140765
  ---------------------------------------------------
  free energy    TOTEN  =       -29.95941237 eV

  energy without entropy =      -29.95940956  energy(sigma->0) =      -29.95941097


--------------------------------------------------------------------------------------------------------




--------------------------------------- Iteration      1(  15)  ---------------------------------------


    POTLOK:  cpu time      0.0440: real time      0.0439
    SETDIJ:  cpu time      0.0074: real time      0.0074
[...]
     18      -4.1402      1.00000
     19      -4.1229      1.00000
     20      -3.7446      1.00000
     21      -2.9142      1.00000
     22      -2.8685      1.00000
     23      -1.9957      1.00000
     24      -1.9240      1.00000
     25      -1.8809      1.00000
     26      -1.6837      1.00000
     27      -1.5044      1.00000
     28      -0.4229      1.00000
     29      -0.3862      1.00000
     30      -0.2826      1.00000
     31      -0.1932      1.00000
     32      -0.0981      1.00000
     33      -0.0556      1.00000
     34       0.0299      1.00000
     35       0.1421      1.00000
     36       0.1911      1.00000
     37       0.2637      1.00000
     38       0.3235      1.00000
     39       0.4489      1.00000
     40       0.6321      1.00000
     41       1.0717      1.00000
     42       1.3683      1.00000
     43       4.2320      0.00000
     44       7.0835      0.00000
     45       8.1187      0.00000
     46       8.2238      0.00000
     47       8.2855      0.00000
     48       8.3699      0.00000

 k-point    64 :      -0.2500   -0.2500   -0.2500
  band No.  band energies     occupation 
      1     -17.9327      1.00000
      2     -17.9155      1.00000
      3     -12.7375      1.00000
      4     -12.3789      1.00000
      5     -12.2925      1.00000
      6     -12.2654      1.00000
      7     -12.2438      1.00000
      8     -12.2185      1.00000
      9      -5.0284      1.00000
     10      -5.0266      1.00000
     11      -4.9380      1.00000
     12      -4.8722      1.00000
     13      -4.8717      1.00000
     14      -4.7965      1.00000
     15      -4.6750      1.00000
     16      -4.6665      1.00000
     17      -4.1359      1.00000
     18      -4.1104      1.00000
     19      -4.1077      1.00000
     20      -4.0208      1.00000
     21      -2.6564      1.00000
     22      -2.6426      1.00000
     23      -2.2677      1.00000
     24      -1.8827      1.00000
     25      -1.8663      1.00000
     26      -1.8613      1.00000
     27      -1.0803      1.00000
     28      -1.0709      1.00000
     29      -0.2041      1.00000
     30      -0.0979      1.00000
     31      -0.0939      1.00000
     32       0.0049      1.00000
     33       0.0872      1.00000
     34       0.0919      1.00000
     35       0.0950      1.00000
     36       0.4231      1.00000
     37       0.4298      1.00000
     38       0.4316      1.00000
     39       0.4380      1.00000
     40       0.5353      1.00000
     41       1.6581      1.00000
     42       1.6757      1.00000
     43       3.3163      0.00000
     44       7.0375      0.00000
     45       7.5893      0.00000
     46       7.6338      0.00000
     47       7.6373      0.00000
     48       7.8430      0.00000


--------------------------------------------------------------------------------------------------------


 soft charge-density along one line, spin component           1
         0         1         2         3         4         5         6         7         8         9
 total charge-density along one line
 
 soft charge-density along one line, spin component           2
         0         1         2         3         4         5         6         7         8         9
 total charge-density along one line
 
 pseudopotential strength for first ion, spin component:           1
-14.719  -0.000   0.000  -0.000  -0.000 -14.705  -0.000   0.000
 -0.000 -14.719  -0.000  -0.000   0.000  -0.000 -14.705  -0.000
  0.000  -0.000 -14.714  -0.000   0.002   0.000  -0.000 -14.700
 -0.000  -0.000  -0.000 -14.721  -0.000  -0.000  -0.000  -0.000
 -0.000   0.000   0.002  -0.000 -14.712  -0.000   0.000   0.002
-14.705  -0.000   0.000  -0.000  -0.000 -14.674  -0.000   0.000
 -0.000 -14.705  -0.000  -0.000   0.000  -0.000 -14.674  -0.000
  0.000  -0.000 -14.700  -0.000   0.002   0.000  -0.000 -14.669
 -0.000  -0.000  -0.000 -14.707  -0.000  -0.000  -0.000  -0.000
 -0.000   0.000   0.002  -0.000 -14.698  -0.000   0.000   0.002
  0.000   0.000   0.000   0.000   0.000   0.000   0.000   0.000
  0.000   0.000   0.000   0.000   0.001   0.000   0.000   0.000
  0.000   0.000   0.000   0.000   0.000   0.000   0.000   0.000
  0.000  -0.000   0.000   0.000   0.000   0.000  -0.000   0.000
 -0.000   0.000  -0.000   0.000   0.000  -0.000   0.000  -0.000
  0.000   0.000   0.000   0.000   0.000   0.000   0.000   0.000
  0.000  -0.000   0.000   0.000   0.000   0.000  -0.000   0.000
 -0.000   0.000  -0.000   0.000   0.000  -0.000   0.000  -0.000
 pseudopotential strength for first ion, spin component:           2
-14.731  -0.000   0.000  -0.000   0.000 -14.717  -0.000   0.000
 -0.000 -14.731  -0.000  -0.000   0.000  -0.000 -14.716  -0.000
  0.000  -0.000 -14.742  -0.000   0.001   0.000  -0.000 -14.728
 -0.000  -0.000  -0.000 -14.733  -0.000  -0.000  -0.000  -0.000
  0.000   0.000   0.001  -0.000 -14.741   0.000   0.000   0.001
-14.717  -0.000   0.000  -0.000   0.000 -14.685  -0.000   0.000
 -0.000 -14.716  -0.000  -0.000   0.000  -0.000 -14.685  -0.000
  0.000  -0.000 -14.728  -0.000   0.001   0.000  -0.000 -14.695
 -0.000  -0.000  -0.000 -14.718  -0.000  -0.000  -0.000  -0.000
  0.000   0.000   0.001  -0.000 -14.726   0.000   0.000   0.001
  0.000   0.000   0.000   0.000   0.000   0.000   0.000   0.000
  0.000   0.000   0.000   0.000   0.000   0.000   0.000   0.000
  0.000   0.000   0.000   0.000   0.000   0.000   0.000   0.000
  0.000  -0.000   0.000   0.000  -0.000   0.000  -0.000   0.000
 -0.000   0.000  -0.000   0.000   0.000  -0.000   0.000  -0.000
  0.000   0.000   0.000   0.000   0.000   0.000   0.000   0.000
  0.000  -0.000   0.000   0.000  -0.000   0.000  -0.000   0.000
 -0.000   0.000  -0.000   0.000   0.000  -0.000   0.000  -0.000
 total augmentation occupancy for first ion, spin component:           1
  3.738   0.000   0.000   0.000  -0.000  -1.482  -0.000  -0.000  -0.000   0.000   0.000   0.000  -0.000  -0.000  -0.000   0.000
  0.000   3.738  -0.000   0.000   0.000  -0.000  -1.482   0.000  -0.000  -0.000   0.000   0.000   0.000  -0.000   0.000  -0.000
  0.000  -0.000   8.051  -0.000  -0.021  -0.000   0.000  -5.664   0.000   0.017  -0.000   0.000   0.000   0.000  -0.000   0.000
  0.000   0.000  -0.000   3.738  -0.000  -0.000  -0.000   0.000  -1.482   0.000   0.000   0.000   0.000   0.000   0.000  -0.000
 -0.000   0.000  -0.021  -0.000   8.030   0.000  -0.000   0.017   0.000  -5.646  -0.000   0.000   0.000   0.000  -0.000  -0.000
 -1.482  -0.000  -0.000  -0.000   0.000   1.232   0.000   0.000  -0.000  -0.000  -0.000   0.000   0.000   0.000   0.000  -0.000
 -0.000  -1.482   0.000  -0.000  -0.000   0.000   1.231  -0.000  -0.000   0.000  -0.000   0.000  -0.000   0.000  -0.000   0.000
 -0.000   0.000  -5.664   0.000   0.017   0.000  -0.000   5.263  -0.000  -0.015   0.000  -0.000   0.000  -0.000   0.000  -0.000
 -0.000  -0.000   0.000  -1.482   0.000  -0.000  -0.000  -0.000   1.232  -0.000  -0.000   0.000  -0.000  -0.000  -0.000   0.000
  0.000  -0.000   0.017   0.000  -5.646  -0.000   0.000  -0.015  -0.000   5.248   0.000  -0.000  -0.000  -0.000   0.000   0.000
  0.000   0.000  -0.000   0.000  -0.000  -0.000  -0.000   0.000  -0.000   0.000   4.384  -1.866  -0.000  -0.000   0.000   0.000
  0.000   0.000   0.000   0.000   0.000   0.000   0.000  -0.000   0.000  -0.000  -1.866   0.914   0.000   0.000  -0.000  -0.000
 -0.000   0.000   0.000   0.000   0.000   0.000  -0.000   0.000  -0.000  -0.000  -0.000   0.000   0.284  -0.000  -0.000  -0.073
 -0.000  -0.000   0.000   0.000   0.000   0.000   0.000  -0.000  -0.000  -0.000  -0.000   0.000  -0.000   0.284  -0.000   0.000
 -0.000   0.000  -0.000   0.000  -0.000   0.000  -0.000   0.000  -0.000   0.000   0.000  -0.000  -0.000  -0.000   0.284   0.000
  0.000  -0.000   0.000  -0.000  -0.000  -0.000   0.000  -0.000   0.000   0.000   0.000  -0.000  -0.073   0.000   0.000   0.021
  0.000  -0.000  -0.000  -0.000  -0.000  -0.000  -0.000   0.000   0.000   0.000   0.000  -0.000   0.000  -0.073  -0.000  -0.000
  0.000  -0.000   0.000  -0.000  -0.000  -0.000   0.000   0.000   0.000   0.000  -0.000  -0.000   0.000  -0.000  -0.073  -0.000
 total augmentation occupancy for first ion, spin component:           2
 -0.017  -0.000   0.000  -0.000  -0.000   0.009  -0.000  -0.000   0.000   0.000  -0.000  -0.000   0.000  -0.000  -0.000   0.000
 -0.000  -0.017  -0.000  -0.000   0.000  -0.000   0.009  -0.000   0.000   0.000  -0.000  -0.000   0.000   0.000   0.000  -0.000
  0.000  -0.000  -0.891  -0.000   0.020   0.000   0.000   0.740   0.000  -0.017  -0.000   0.000  -0.000   0.000  -0.000  -0.000
 -0.000  -0.000  -0.000  -0.017   0.000   0.000   0.000   0.000   0.009  -0.000   0.000  -0.000   0.000   0.000  -0.000  -0.000
 -0.000   0.000   0.020   0.000  -0.870   0.000   0.000  -0.017  -0.000   0.722  -0.000   0.000   0.000   0.000  -0.000   0.000
  0.009  -0.000   0.000   0.000   0.000  -0.002   0.000  -0.000  -0.000  -0.000   0.000   0.000  -0.000   0.000   0.000  -0.000
 -0.000   0.009   0.000   0.000   0.000   0.000  -0.002   0.000   0.000  -0.000   0.000  -0.000  -0.000  -0.000  -0.000   0.000
 -0.000  -0.000   0.740   0.000  -0.017  -0.000   0.000  -0.611  -0.000   0.014   0.000  -0.000   0.000  -0.000   0.000   0.000
  0.000   0.000   0.000   0.009  -0.000  -0.000   0.000  -0.000  -0.002   0.000   0.000   0.000  -0.000  -0.000   0.000   0.000
  0.000   0.000  -0.017  -0.000   0.722  -0.000  -0.000   0.014   0.000  -0.596   0.000  -0.000  -0.000  -0.000  -0.000   0.000
 -0.000  -0.000  -0.000   0.000  -0.000   0.000   0.000   0.000   0.000   0.000   0.007   0.001  -0.000  -0.000  -0.000   0.000
 -0.000  -0.000   0.000  -0.000   0.000   0.000  -0.000  -0.000   0.000  -0.000   0.001   0.001   0.000   0.000   0.000  -0.000
  0.000   0.000  -0.000   0.000   0.000  -0.000  -0.000   0.000  -0.000  -0.000  -0.000   0.000  -0.003   0.000   0.000   0.001
 -0.000   0.000   0.000   0.000   0.000   0.000  -0.000  -0.000  -0.000  -0.000  -0.000   0.000   0.000  -0.003   0.000  -0.000
 -0.000   0.000  -0.000  -0.000  -0.000   0.000  -0.000   0.000   0.000  -0.000  -0.000   0.000   0.000   0.000  -0.003  -0.000
  0.000  -0.000  -0.000  -0.000   0.000  -0.000   0.000   0.000   0.000   0.000   0.000  -0.000   0.001  -0.000  -0.000  -0.000
  0.000   0.000   0.000  -0.000  -0.000  -0.000  -0.000  -0.000   0.000   0.000  -0.000   0.000  -0.000   0.001  -0.000   0.000
 -0.000   0.000  -0.000  -0.000   0.000   0.000  -0.000   0.000   0.000  -0.000   0.000  -0.000  -0.000  -0.000   0.001   0.000


------------------------ aborting loop because EDIFF is reached ----------------------------------------





 total charge

# of ion       s       p       d       f       tot
--------------------------------------------------
    1        0.586   0.326   9.427   0.000  10.339
    2        0.287   0.267   9.159   0.000   9.714
    3        1.954   5.303   0.038   0.007   7.302
    4        1.954   5.303   0.038   0.007   7.302
    5        1.603   3.500   0.000   0.000   5.103
    6        1.603   3.500   0.000   0.000   5.103
    7        1.603   3.498   0.000   0.000   5.101
    8        1.603   3.498   0.000   0.000   5.101
    9        1.603   3.500   0.000   0.000   5.103
   10        1.603   3.500   0.000   0.000   5.103
--------------------------------------------------
tot         14.399  32.194  18.662   0.014  65.269



 magnetization (x)

# of ion       s       p       d       f       tot
--------------------------------------------------
    1        0.006  -0.004  -0.046   0.000  -0.044
    2        0.002  -0.001  -0.171   0.000  -0.170
    3        0.000   0.000   0.000   0.000   0.000
    4        0.000   0.000   0.000   0.000   0.000
    5       -0.002  -0.052   0.000   0.000  -0.054
    6       -0.002  -0.052   0.000   0.000  -0.054
    7       -0.002  -0.050   0.000   0.000  -0.052
    8       -0.002  -0.050   0.000   0.000  -0.052
    9       -0.002  -0.052   0.000   0.000  -0.053
   10       -0.002  -0.052   0.000   0.000  -0.053
--------------------------------------------------
tot         -0.000  -0.314  -0.216   0.000  -0.530
 
    FORLOC:  cpu time      0.0040: real time      0.0056
    FORNL :  cpu time      0.2724: real time      0.2720
    STRESS:  cpu time      4.7718: real time      4.7657
    FORCOR:  cpu time      0.0419: real time      0.0417
    OFIELD:  cpu time      0.0005: real time      0.0005

  FORCE on cell =-STRESS in cart. coord.  units (eV):
  Direction    XX          YY          ZZ          XY          YZ          ZX
  --------------------------------------------------------------------------------------
  Alpha Z   226.04517   226.04517   226.04517
  Ewald   -1510.35505 -1510.35505 -1510.35505     0.00000     0.00000     0.00000
  Hartree   451.73840   451.30601   451.73241    -0.00026    -0.00028     0.00004
  E(xc)    -351.99917  -351.98882  -351.99879     0.00005     0.00005     0.00002
  Local    -577.69693  -576.85010  -577.67857     0.00194     0.00209    -0.00136
  n-local   577.14428   577.05726   577.14190    -0.00019    -0.00023     0.00080
  augment   -37.59740   -37.55742   -37.59792    -0.00007    -0.00006    -0.00013
  Kinetic  1227.02763  1226.76702  1227.00869    -0.00276    -0.00291    -0.00061
  Fock        0.00000     0.00000     0.00000     0.00000     0.00000     0.00000
  -------------------------------------------------------------------------------------
  Total       4.30694     4.42406     4.29783    -0.00130    -0.00134    -0.00124
  in kB      24.97745    25.65667    24.92460    -0.00752    -0.00775    -0.00722
  external pressure =       25.19 kB  Pullay stress =        0.00 kB


 VOLUME and BASIS-vectors are now :
 -----------------------------------------------------------------------------
  energy-cutoff  :      350.00
  volume of cell :      276.27
      direct lattice vectors                 reciprocal lattice vectors
     0.000000000  5.169323800  5.169323800    -0.096724450  0.096724450  0.096724450
     5.169323800  0.000000000  5.169323800     0.096724450 -0.096724450  0.096724450
     5.169323800  5.169323800  0.000000000     0.096724450  0.096724450 -0.096724450

  length of vectors
     7.310527826  7.310527826  7.310527826     0.167531661  0.167531661  0.167531661


 FORCES acting on ions:
    Electron-Ion                     Ewald-Force                    Non-Local-Force
 -----------------------------------------------------------------------------------------------
   -.352E-05 0.263E-05 -.472E-05   -.279E-13 0.222E-15 -.284E-13   -.230E-05 0.102E-05 -.452E-06
   -.158E-04 0.112E-04 0.204E-04   -.111E-14 -.666E-15 0.000E+00   0.869E-05 -.627E-05 -.140E-04
   0.232E-04 -.353E-04 0.252E-04   0.916E-14 0.146E-13 0.117E-13   0.236E-05 0.391E-05 -.993E-06
   -.209E-04 0.316E-04 -.190E-04   -.421E-14 -.543E-14 -.237E-13   -.191E-05 -.973E-06 -.211E-05
   0.570E+01 -.981E-04 0.231E-03   -.551E+01 0.711E-14 0.109E-13   -.213E+00 0.129E-03 -.724E-04
   -.570E+01 0.113E-03 -.208E-03   0.551E+01 -.985E-14 -.622E-14   0.213E+00 -.135E-03 0.565E-04
   -.104E-03 0.569E+01 -.118E-03   0.147E-14 -.551E+01 -.511E-14   0.134E-03 -.203E+00 0.146E-03
   0.114E-03 -.569E+01 0.130E-03   -.507E-14 0.551E+01 0.000E+00   -.143E-03 0.203E+00 -.156E-03
   0.237E-03 -.126E-03 0.570E+01   0.153E-15 0.192E-14 -.551E+01   -.728E-04 0.148E-03 -.213E+00
   -.225E-03 0.117E-03 -.570E+01   -.321E-14 -.600E-14 0.551E+01   0.648E-04 -.145E-03 0.213E+00
 -----------------------------------------------------------------------------------------------
   -.791E-05 0.417E-04 0.421E-04   -.439E-15 0.569E-14 -.622E-14   -.126E-04 -.134E-04 -.399E-04
 
 
 POSITION                                       TOTAL-FORCE (eV/Angst)
 -----------------------------------------------------------------------------------
      0.00000      0.00000      0.00000        -0.000004      0.000001     -0.000005
      5.16932      5.16932      5.16932        -0.000006      0.000003      0.000007
      2.58466      2.58466      2.58466         0.000027     -0.000035      0.000024
      7.75399      7.75399      7.75399        -0.000020      0.000028     -0.000020
      2.61811      5.16932      5.16932        -0.021840      0.000027      0.000160
      7.72054      5.16932      5.16932         0.021828     -0.000024     -0.000154
      5.16932      2.61811      5.16932         0.000031     -0.017724      0.000027
      5.16932      7.72054      5.16932        -0.000026      0.017736     -0.000025
      5.16932      5.16932      2.61811         0.000168      0.000019     -0.021660
      5.16932      5.16932      7.72054        -0.000159     -0.000029      0.021647
 -----------------------------------------------------------------------------------
    total drift:                               -0.000021      0.000028      0.000002


--------------------------------------------------------------------------------------------------------



  FREE ENERGIE OF THE ION-ELECTRON SYSTEM (eV)
  ---------------------------------------------------
  free  energy   TOTEN  =       -29.95980474 eV

  energy  without entropy=      -29.95980110  energy(sigma->0) =      -29.95980292
 


--------------------------------------------------------------------------------------------------------


    POTLOK:  cpu time      0.0588: real time      0.0588


--------------------------------------------------------------------------------------------------------


     LOOP+:  cpu time     44.5873: real time     44.7266
    4ORBIT:  cpu time      0.0000: real time      0.0000



 total charge

# of ion       s       p       d       f       tot
--------------------------------------------------
    1        0.586   0.326   9.427   0.000  10.339
    2        0.287   0.267   9.159   0.000   9.714
    3        1.954   5.303   0.038   0.007   7.302
    4        1.954   5.303   0.038   0.007   7.302
    5        1.603   3.500   0.000   0.000   5.103
    6        1.603   3.500   0.000   0.000   5.103
    7        1.603   3.498   0.000   0.000   5.101
    8        1.603   3.498   0.000   0.000   5.101
    9        1.603   3.500   0.000   0.000   5.103
   10        1.603   3.500   0.000   0.000   5.103
--------------------------------------------------
tot         14.399  32.194  18.662   0.014  65.269



 magnetization (x)

# of ion       s       p       d       f       tot
--------------------------------------------------
    1        0.006  -0.004  -0.046   0.000  -0.044
    2        0.002  -0.001  -0.171   0.000  -0.170
    3        0.000   0.000   0.000   0.000   0.000
    4        0.000   0.000   0.000   0.000   0.000
    5       -0.002  -0.052   0.000   0.000  -0.054
    6       -0.002  -0.052   0.000   0.000  -0.054
    7       -0.002  -0.050   0.000   0.000  -0.052
    8       -0.002  -0.050   0.000   0.000  -0.052
    9       -0.002  -0.052   0.000   0.000  -0.053
   10       -0.002  -0.052   0.000   0.000  -0.053
--------------------------------------------------
tot         -0.000  -0.314  -0.216   0.000  -0.530
 

 total amount of memory used by VASP MPI-rank0   470122. kBytes
=======================================================================

   base      :      30000. kBytes
   nonl-proj :     271193. kBytes
   fftplans  :       1814. kBytes
   grid      :       8356. kBytes
   one-center:        983. kBytes
   wavefun   :     157776. kBytes
 
  
  
 General timing and accounting informations for this job:
 ========================================================
  
                  Total CPU time used (sec):       48.259
                            User time (sec):       47.035
                          System time (sec):        1.224
                         Elapsed time (sec):       50.114
  
                   Maximum memory used (kb):      595036.
                   Average memory used (kb):          N/A
  
                          Minor page faults:       369069
                          Major page faults:          122
                 Voluntary context switches:         6325
