 vasp.6.3.0 20Jan22 (build Feb 17 2022 08:07:03) complex                        
  
 executed on             LinuxGNU date 2024.04.13  16:27:14
 running on   64 total cores
 distrk:  each k-point on    8 cores,    8 groups
 distr:  one band on NCORE=   1 cores,    8 groups


--------------------------------------------------------------------------------------------------------


 INCAR:
   ISTART = 0
   ISPIN = 2
   LWAVE = .FALSE.
   ALGO = A
   NPAR = 16
   KPAR = 8
   ISMEAR = 0
   SIGMA = 0.0001
   NELM = 180
   ISYM = -1
   GGA = PE
   LORBIT = 10
   ENCUT = 350
   EDIFF = 1e-06
   MAGMOM = 0.00 3.40 2*0.0 6*0.0

 POTCAR:    PAW_PBE Hg 06Sep2000                  
 POTCAR:    PAW_PBE Ag 02Apr2005                  
 POTCAR:    PAW_PBE Cs_sv_GW 25Jan2019            
 POTCAR:    PAW_PBE Cl 06Sep2000                  
 -----------------------------------------------------------------------------
|                                                                             |
|           W    W    AA    RRRRR   N    N  II  N    N   GGGG   !!!           |
|           W    W   A  A   R    R  NN   N  II  NN   N  G    G  !!!           |
|           W    W  A    A  R    R  N N  N  II  N N  N  G       !!!           |
|           W WW W  AAAAAA  RRRRR   N  N N  II  N  N N  G  GGG   !            |
|           WW  WW  A    A  R   R   N   NN  II  N   NN  G    G                |
|           W    W  A    A  R    R  N    N  II  N    N   GGGG   !!!           |
|                                                                             |
|     The value NPAR = 16 specified in the INCAR file was overwritten,        |
|     because it was not compatible with the 8 processes available:           |
|     NPAR = 8                                                                |
|     was used instead, please check that this makes sense for your           |
|     machine.                                                                |
|                                                                             |
 -----------------------------------------------------------------------------

 -----------------------------------------------------------------------------
|                                                                             |
|           W    W    AA    RRRRR   N    N  II  N    N   GGGG   !!!           |
|           W    W   A  A   R    R  NN   N  II  NN   N  G    G  !!!           |
|           W    W  A    A  R    R  N N  N  II  N N  N  G       !!!           |
|           W WW W  AAAAAA  RRRRR   N  N N  II  N  N N  G  GGG   !            |
|           WW  WW  A    A  R   R   N   NN  II  N   NN  G    G                |
|           W    W  A    A  R    R  N    N  II  N    N   GGGG   !!!           |
|                                                                             |
|     For optimal performance we recommend to set                             |
|       NCORE = 2 up to number-of-cores-per-socket                            |
|     NCORE specifies how many cores store one orbital (NPAR=cpu/NCORE).      |
|     This setting can greatly improve the performance of VASP for DFT.       |
|     The default, NCORE=1 might be grossly inefficient on modern             |
|     multi-core architectures or massively parallel machines. Do your        |
|     own testing! More info at https://www.vasp.at/wiki/index.php/NCORE      |
|     Unfortunately you need to use the default for GW and RPA                |
|     calculations (for HF NCORE is supported but not extensively tested      |
|     yet).                                                                   |
|                                                                             |
 -----------------------------------------------------------------------------

 POTCAR:    PAW_PBE Hg 06Sep2000                  
   SHA256 =  b58054e5facb8a6c456f8fea289fc655b681c0fa06131ba074282c377c596e89 Hg/POTCAR             
   COPYR  = (c) Copyright 06Sep2000 Georg Kresse                                                    
   COPYR  = This file is part of the software VASP. Any use, copying, and all other rights are regul
   COPYR  = If you do not have a valid VASP license, you may not use, copy or distribute this file. 
   VRHFIN =Hg: 10s 2d fine mesh  91                                                                 
   LEXCH  = PE                                                                                      
   EATOM  =  1148.5194 eV,   84.4138 Ry                                                             
                                                                                                    
   TITEL  = PAW_PBE Hg 06Sep2000                                                                    
   LULTRA =        F    use ultrasoft PP ?                                                          
   IUNSCR =        1    unscreen: 0-lin 1-nonlin 2-no                                               
   RPACOR =    2.500    partial core radius                                                         
   POMASS =  200.590; ZVAL   =   12.000    mass and valenz                                          
   RCORE  =    2.500    outmost cutoff radius                                                       
   RWIGS  =    3.050; RWIGS  =    1.614    wigner-seitz radius (au A)                               
   ENMAX  =  233.204; ENMIN  =  174.903 eV                                                          
   RCLOC  =    2.106    cutoff for local pot                                                        
   LCOR   =        T    correct aug charges                                                         
   LPAW   =        T    paw PP                                                                      
   EAUG   =  352.362                                                                                
   DEXC   =    0.000                                                                                
   RMAX   =    2.557    core radius for proj-oper                                                   
   RAUG   =    1.300    factor for augmentation sphere                                              
   RDEP   =    2.614    radius for radial grids                                                     
   RDEPT  =    2.171    core radius for aug-charge                                                  
                                                                                                    
   Atomic configuration                                                                             
   15 entries                                                                                       
     n  l   j            E        occ.                                                              
     1  0  0.50    -83145.9708   2.0000                                                             
     2  0  0.50    -14733.6065   2.0000                                                             
     2  1  1.50    -12701.0377   6.0000                                                             
     3  0  0.50     -3496.3892   2.0000                                                             
     3  1  1.50     -2909.4293   6.0000                                                             
     3  2  2.50     -2293.1414  10.0000                                                             
     4  0  0.50      -768.8230   2.0000                                                             
     4  1  1.50      -576.4602   6.0000                                                             
     4  2  2.50      -348.5618  10.0000                                                             
     4  3  3.50       -95.9099  14.0000                                                             
     5  0  0.50      -118.1284   2.0000                                                             
     5  1  1.50       -66.4778   6.0000                                                             
     5  2  2.50        -9.8614  10.0000                                                             
     6  0  0.50        -6.8147   2.0000                                                             
     6  1  1.50        -6.8029   0.0000                                                             
   Description                                                                                      
     l       E           TYP  RCUT    TYP  RCUT                                                     
     2     -9.8614287     23  2.500                                                                 
     2    -11.2220113     23  2.500                                                                 
     0     -6.8147273     23  2.500                                                                 
     0     -4.0297848     23  2.500                                                                 
     1     -2.7211652     23  2.500                                                                 
     1      8.0997183     23  2.500                                                                 
  local pseudopotential read in
  partial core-charges read in
  partial kinetic energy density read in
  atomic valenz-charges read in
  non local Contribution for L=           2  read in
    real space projection operators read in
  non local Contribution for L=           2  read in
    real space projection operators read in
  non local Contribution for L=           0  read in
    real space projection operators read in
  non local Contribution for L=           0  read in
    real space projection operators read in
  non local Contribution for L=           1  read in
    real space projection operators read in
  non local Contribution for L=           1  read in
    real space projection operators read in
    PAW grid and wavefunctions read in
 
   number of l-projection  operators is LMAX  =           6
   number of lm-projection operators is LMMAX =          18
 
 POTCAR:    PAW_PBE Ag 02Apr2005                  
   SHA256 =  6550cfa3543261e132c169e1b98a529204624d72be14e2da2e0242bcb74a174d Ag/POTCAR             
   COPYR  = (c) Copyright 02Apr2005 Georg Kresse                                                    
   COPYR  = This file is part of the software VASP. Any use, copying, and all other rights are regul
   COPYR  = If you do not have a valid VASP license, you may not use, copy or distribute this file. 
   VRHFIN =Ag : s1 d10                                                                              
   LEXCH  = PE                                                                                      
   EATOM  =  1037.2675 eV,   76.2370 Ry                                                             
                                                                                                    
   TITEL  = PAW_PBE Ag 02Apr2005                                                                    
   LULTRA =        F    use ultrasoft PP ?                                                          
   IUNSCR =        1    unscreen: 0-lin 1-nonlin 2-no                                               
   RPACOR =    2.000    partial core radius                                                         
   POMASS =  107.868; ZVAL   =   11.000    mass and valenz                                          
   RCORE  =    2.500    outmost cutoff radius                                                       
   RWIGS  =    2.840; RWIGS  =    1.503    wigner-seitz radius (au A)                               
   ENMAX  =  249.844; ENMIN  =  187.383 eV                                                          
   ICORE  =        3    local potential                                                             
   LCOR   =        T    correct aug charges                                                         
   LPAW   =        T    paw PP                                                                      
   EAUG   =  412.496                                                                                
   DEXC   =    0.000                                                                                
   RMAX   =    2.560    core radius for proj-oper                                                   
   RAUG   =    1.300    factor for augmentation sphere                                              
   RDEP   =    2.576    radius for radial grids                                                     
   RDEPT  =    2.072    core radius for aug-charge                                                  
                                                                                                    
   Atomic configuration                                                                             
   12 entries                                                                                       
     n  l   j            E        occ.                                                              
     1  0  0.50    -25324.9161   2.0000                                                             
     2  0  0.50     -3728.5341   2.0000                                                             
     2  1  1.50     -3344.0404   6.0000                                                             
     3  0  0.50      -683.5581   2.0000                                                             
     3  1  1.50      -557.3225   6.0000                                                             
     3  2  2.50      -358.3853  10.0000                                                             
     4  0  0.50       -95.0341   2.0000                                                             
     4  1  1.50       -58.5511   6.0000                                                             
     4  2  2.50        -7.4440  10.0000                                                             
     5  0  0.50        -4.4045   1.0000                                                             
     5  1  0.50        -1.3606   0.0000                                                             
     4  3  2.50        -1.3606   0.0000                                                             
   Description                                                                                      
     l       E           TYP  RCUT    TYP  RCUT                                                     
     2     -7.4439781     23  2.400                                                                 
     2     -8.8045607     23  2.400                                                                 
     0     -4.4044681     23  2.400                                                                 
     0      1.9520038     23  2.400                                                                 
     1     -1.3605826     23  2.500                                                                 
     1     27.2116520     23  2.500                                                                 
     3     -4.0817478     23  2.400                                                                 
  local pseudopotential read in
  partial core-charges read in
  partial kinetic energy density read in
  atomic valenz-charges read in
  non local Contribution for L=           2  read in
    real space projection operators read in
  non local Contribution for L=           2  read in
    real space projection operators read in
  non local Contribution for L=           0  read in
    real space projection operators read in
  non local Contribution for L=           0  read in
    real space projection operators read in
  non local Contribution for L=           1  read in
    real space projection operators read in
  non local Contribution for L=           1  read in
    real space projection operators read in
    PAW grid and wavefunctions read in
 
   number of l-projection  operators is LMAX  =           6
   number of lm-projection operators is LMMAX =          18
 
 POTCAR:    PAW_PBE Cs_sv_GW 25Jan2019            
   SHA256 =  544505def5554af6a71dbf4e0824d8cfbc5d58c6010915fb427a3861796039e8 Cs_sv_GW/POTCAR       
   COPYR  = (c) Copyright 25Jan2019 Georg Kresse                                                    
   COPYR  = This file is part of the software VASP. Any use, copying, and all other rights are regul
   COPYR  = If you do not have a valid VASP license, you may not use, copy or distribute this file. 
   VRHFIN =Cs: 5s5p6s                                                                               
   LEXCH  = PE                                                                                      
   EATOM  =   553.9786 eV,   40.7163 Ry                                                             
                                                                                                    
   TITEL  = PAW_PBE Cs_sv_GW 25Jan2019                                                              
   LULTRA =        F    use ultrasoft PP ?                                                          
   IUNSCR =        1    unscreen: 0-lin 1-nonlin 2-no                                               
   RPACOR =    1.800    partial core radius                                                         
   POMASS =  132.900; ZVAL   =    9.000    mass and valenz                                          
   RCORE  =    2.800    outmost cutoff radius                                                       
   RWIGS  =    2.800; RWIGS  =    1.482    wigner-seitz radius (au A)                               
   ENMAX  =  198.101; ENMIN  =  148.575 eV                                                          
   RCLOC  =    1.807    cutoff for local pot                                                        
   LCOR   =        T    correct aug charges                                                         
   LPAW   =        T    paw PP                                                                      
   EAUG   =  528.800                                                                                
   DEXC   =   -0.000                                                                                
   RMAX   =    2.857    core radius for proj-oper                                                   
   RAUG   =    1.300    factor for augmentation sphere                                              
   RDEP   =    2.944    radius for radial grids                                                     
   RDEPT  =    2.264    core radius for aug-charge                                                  
                                                                                                    
   Atomic configuration                                                                             
   13 entries                                                                                       
     n  l   j            E        occ.                                                              
     1  0  0.50    -35790.3517   2.0000                                                             
     2  0  0.50     -5613.8021   2.0000                                                             
     2  1  1.50     -5035.1938   6.0000                                                             
     3  0  0.50     -1167.2590   2.0000                                                             
     3  1  1.50      -981.1578   6.0000                                                             
     3  2  2.50      -708.2511  10.0000                                                             
     4  0  0.50      -220.4162   2.0000                                                             
     4  1  1.50      -160.9356   6.0000                                                             
     4  2  2.50       -74.4049  10.0000                                                             
     5  0  0.50       -26.8702   2.0000                                                             
     5  1  1.50       -13.6836   6.0000                                                             
     5  2  2.50        -0.5763   1.0000                                                             
     5  3  2.50        -1.3606   0.0000                                                             
   Description                                                                                      
     l       E           TYP  RCUT    TYP  RCUT                                                     
     0    -26.8701825     23  1.700                                                                 
     0    -28.2307651     23  1.700                                                                 
     1    -13.6835844     23  2.200                                                                 
     1     81.6349560     23  2.200                                                                 
     2     -0.5763402     23  2.600                                                                 
     2      9.2241064     23  2.600                                                                 
     3      2.7211652     23  2.800                                                                 
     3      5.4423304     23  2.800                                                                 
  local pseudopotential read in
  partial core-charges read in
  partial kinetic energy density read in
  kinetic energy density of atom read in
  atomic valenz-charges read in
  non local Contribution for L=           0  read in
    real space projection operators read in
  non local Contribution for L=           0  read in
    real space projection operators read in
  non local Contribution for L=           1  read in
    real space projection operators read in
  non local Contribution for L=           1  read in
    real space projection operators read in
  non local Contribution for L=           2  read in
    real space projection operators read in
  non local Contribution for L=           2  read in
    real space projection operators read in
  non local Contribution for L=           3  read in
    real space projection operators read in
  non local Contribution for L=           3  read in
    real space projection operators read in
    PAW grid and wavefunctions read in
 
   number of l-projection  operators is LMAX  =           8
   number of lm-projection operators is LMMAX =          32
 
 POTCAR:    PAW_PBE Cl 06Sep2000                  
   SHA256 =  9f1b6e6ed4247ac726a768b330d26d7667cc3c95a39ff49c1d064c2d9dcce931 Cl/POTCAR             
   COPYR  = (c) Copyright 06Sep2000 Georg Kresse                                                    
   COPYR  = This file is part of the software VASP. Any use, copying, and all other rights are regul
   COPYR  = If you do not have a valid VASP license, you may not use, copy or distribute this file. 
   VRHFIN =Cl: s2p5                                                                                 
   LEXCH  = PE                                                                                      
   EATOM  =   409.7259 eV,   30.1140 Ry                                                             
                                                                                                    
   TITEL  = PAW_PBE Cl 06Sep2000                                                                    
   LULTRA =        F    use ultrasoft PP ?                                                          
   IUNSCR =        1    unscreen: 0-lin 1-nonlin 2-no                                               
   RPACOR =    1.500    partial core radius                                                         
   POMASS =   35.453; ZVAL   =    7.000    mass and valenz                                          
   RCORE  =    1.900    outmost cutoff radius                                                       
   RWIGS  =    2.100; RWIGS  =    1.111    wigner-seitz radius (au A)                               
   ENMAX  =  262.472; ENMIN  =  196.854 eV                                                          
   ICORE  =        2    local potential                                                             
   LCOR   =        T    correct aug charges                                                         
   LPAW   =        T    paw PP                                                                      
   EAUG   =  356.192                                                                                
   DEXC   =    0.000                                                                                
   RMAX   =    1.945    core radius for proj-oper                                                   
   RAUG   =    1.300    factor for augmentation sphere                                              
   RDEP   =    2.020    radius for radial grids                                                     
   RDEPT  =    1.678    core radius for aug-charge                                                  
                                                                                                    
   Atomic configuration                                                                             
    6 entries                                                                                       
     n  l   j            E        occ.                                                              
     1  0  0.50     -2751.1850   2.0000                                                             
     2  0  0.50      -252.6861   2.0000                                                             
     2  1  1.50      -191.6157   6.0000                                                             
     3  0  0.50       -20.6916   2.0000                                                             
     3  1  0.50        -8.5949   5.0000                                                             
     3  2  1.50        -8.1635   0.0000                                                             
   Description                                                                                      
     l       E           TYP  RCUT    TYP  RCUT                                                     
     0    -20.6915656     23  1.900                                                                 
     0    -22.0521482     23  1.900                                                                 
     1     -8.5948577     23  1.900                                                                 
     1     -5.3847331     23  1.900                                                                 
     2     -8.1634956     23  1.900                                                                 
  local pseudopotential read in
  partial core-charges read in
  partial kinetic energy density read in
  atomic valenz-charges read in
  non local Contribution for L=           0  read in
    real space projection operators read in
  non local Contribution for L=           0  read in
    real space projection operators read in
  non local Contribution for L=           1  read in
    real space projection operators read in
  non local Contribution for L=           1  read in
    real space projection operators read in
    PAW grid and wavefunctions read in
 
   number of l-projection  operators is LMAX  =           4
   number of lm-projection operators is LMMAX =           8
 
  PAW_PBE Hg 06Sep2000                  :
 energy of atom  1       EATOM=-1148.5194
 kinetic energy error for atom=    0.0167 (will be added to EATOM!!)
  PAW_PBE Ag 02Apr2005                  :
 energy of atom  2       EATOM=-1037.2675
 kinetic energy error for atom=    0.0272 (will be added to EATOM!!)
  PAW_PBE Cs_sv_GW 25Jan2019            :
 energy of atom  3       EATOM= -553.9786
 kinetic energy error for atom=    0.0157 (will be added to EATOM!!)
  PAW_PBE Cl 06Sep2000                  :
 energy of atom  4       EATOM= -409.7259
 kinetic energy error for atom=    0.0105 (will be added to EATOM!!)
 
 
 POSCAR: CsHgAgCl
  positions in direct lattice
  velocities in cartesian coordinates
 exchange correlation table for  LEXCH =        8
   RHO(1)=    0.500       N(1)  =     2000
   RHO(2)=  100.500       N(2)  =     4000
 


--------------------------------------------------------------------------------------------------------


 ion  position               nearest neighbor table
   1  0.000  0.000  0.000-   5 2.62   6 2.62   7 2.62   8 2.62   9 2.62  10 2.62
   2  0.500  0.500  0.500-   5 2.55   6 2.55   7 2.55   8 2.55   9 2.55  10 2.55
   3  0.250  0.250  0.250-
   4  0.750  0.750  0.750-
   5  0.747  0.253  0.253-   2 2.55   1 2.62
   6  0.253  0.747  0.747-   2 2.55   1 2.62
   7  0.253  0.747  0.253-   2 2.55   1 2.62
   8  0.747  0.253  0.747-   2 2.55   1 2.62
   9  0.253  0.253  0.747-   2 2.55   1 2.62
  10  0.747  0.747  0.253-   2 2.55   1 2.62
 

IMPORTANT INFORMATION: All symmetrisations will be switched off!
NOSYMM: (Re-)initialisation of all symmetry stuff for point group C_1.


----------------------------------------------------------------------------------------

                                     Primitive cell                                     

  volume of cell :     276.2684

  direct lattice vectors                    reciprocal lattice vectors
     0.000000000  5.169323800  5.169323800    -0.096724450  0.096724450  0.096724450
     5.169323800  0.000000000  5.169323800     0.096724450 -0.096724450  0.096724450
     5.169323800  5.169323800  0.000000000     0.096724450  0.096724450 -0.096724450

  length of vectors
     7.310527826  7.310527826  7.310527826     0.167531661  0.167531661  0.167531661

  position of ions in fractional coordinates (direct lattice)
     0.000000000  0.000000000  0.000000000
     0.500000000  0.500000000  0.500000000
     0.250000000  0.250000000  0.250000000
     0.750000000  0.750000000  0.750000000
     0.746765063  0.253234937  0.253234937
     0.253234937  0.746765063  0.746765063
     0.253234937  0.746765063  0.253234937
     0.746765063  0.253234937  0.746765063
     0.253234937  0.253234937  0.746765063
     0.746765063  0.746765063  0.253234937

  ion indices of the primitive-cell ions
   primitive index   ion index
                 1           1
                 2           2
                 3           3
                 4           4
                 5           5
                 6           6
                 7           7
                 8           8
                 9           9
                10          10

----------------------------------------------------------------------------------------

 
 
 KPOINTS: k-points                                

Automatic generation of k-mesh.
 Grid dimensions read from file:
 generate k-points for:    4    4    4

 Generating k-lattice:

  Cartesian coordinates                     Fractional coordinates (reciprocal lattice)
    -0.024181112  0.024181112  0.024181112     0.250000000  0.000000000  0.000000000
     0.024181112 -0.024181112  0.024181112     0.000000000  0.250000000  0.000000000
     0.024181112  0.024181112 -0.024181112     0.000000000  0.000000000  0.250000000

  Length of vectors
     0.041882915  0.041882915  0.041882915

  Shift w.r.t. Gamma in fractional coordinates (k-lattice)
     0.000000000  0.000000000  0.000000000

 
 Subroutine IBZKPT returns following result:
 ===========================================
 
 Found     64 irreducible k-points:
 
 Following reciprocal coordinates:
            Coordinates               Weight
  0.000000  0.000000  0.000000      1.000000
  0.250000  0.000000  0.000000      1.000000
  0.500000  0.000000  0.000000      1.000000
 -0.250000  0.000000  0.000000      1.000000
  0.000000  0.250000  0.000000      1.000000
  0.250000  0.250000  0.000000      1.000000
  0.500000  0.250000  0.000000      1.000000
 -0.250000  0.250000  0.000000      1.000000
  0.000000  0.500000  0.000000      1.000000
  0.250000  0.500000  0.000000      1.000000
  0.500000  0.500000  0.000000      1.000000
 -0.250000  0.500000  0.000000      1.000000
  0.000000 -0.250000  0.000000      1.000000
  0.250000 -0.250000  0.000000      1.000000
  0.500000 -0.250000  0.000000      1.000000
 -0.250000 -0.250000  0.000000      1.000000
  0.000000  0.000000  0.250000      1.000000
  0.250000  0.000000  0.250000      1.000000
  0.500000  0.000000  0.250000      1.000000
 -0.250000  0.000000  0.250000      1.000000
  0.000000  0.250000  0.250000      1.000000
  0.250000  0.250000  0.250000      1.000000
  0.500000  0.250000  0.250000      1.000000
 -0.250000  0.250000  0.250000      1.000000
  0.000000  0.500000  0.250000      1.000000
  0.250000  0.500000  0.250000      1.000000
  0.500000  0.500000  0.250000      1.000000
 -0.250000  0.500000  0.250000      1.000000
  0.000000 -0.250000  0.250000      1.000000
  0.250000 -0.250000  0.250000      1.000000
  0.500000 -0.250000  0.250000      1.000000
 -0.250000 -0.250000  0.250000      1.000000
  0.000000  0.000000  0.500000      1.000000
  0.250000  0.000000  0.500000      1.000000
  0.500000  0.000000  0.500000      1.000000
 -0.250000  0.000000  0.500000      1.000000
  0.000000  0.250000  0.500000      1.000000
  0.250000  0.250000  0.500000      1.000000
  0.500000  0.250000  0.500000      1.000000
 -0.250000  0.250000  0.500000      1.000000
  0.000000  0.500000  0.500000      1.000000
  0.250000  0.500000  0.500000      1.000000
  0.500000  0.500000  0.500000      1.000000
 -0.250000  0.500000  0.500000      1.000000
  0.000000 -0.250000  0.500000      1.000000
  0.250000 -0.250000  0.500000      1.000000
  0.500000 -0.250000  0.500000      1.000000
 -0.250000 -0.250000  0.500000      1.000000
  0.000000  0.000000 -0.250000      1.000000
  0.250000  0.000000 -0.250000      1.000000
  0.500000  0.000000 -0.250000      1.000000
 -0.250000  0.000000 -0.250000      1.000000
  0.000000  0.250000 -0.250000      1.000000
  0.250000  0.250000 -0.250000      1.000000
  0.500000  0.250000 -0.250000      1.000000
 -0.250000  0.250000 -0.250000      1.000000
  0.000000  0.500000 -0.250000      1.000000
  0.250000  0.500000 -0.250000      1.000000
  0.500000  0.500000 -0.250000      1.000000
 -0.250000  0.500000 -0.250000      1.000000
  0.000000 -0.250000 -0.250000      1.000000
  0.250000 -0.250000 -0.250000      1.000000
  0.500000 -0.250000 -0.250000      1.000000
 -0.250000 -0.250000 -0.250000      1.000000
 
 Following cartesian coordinates:
            Coordinates               Weight
  0.000000  0.000000  0.000000      1.000000
 -0.024181  0.024181  0.024181      1.000000
 -0.048362  0.048362  0.048362      1.000000
  0.024181 -0.024181 -0.024181      1.000000
  0.024181 -0.024181  0.024181      1.000000
  0.000000  0.000000  0.048362      1.000000
 -0.024181  0.024181  0.072543      1.000000
  0.048362 -0.048362  0.000000      1.000000
  0.048362 -0.048362  0.048362      1.000000
  0.024181 -0.024181  0.072543      1.000000
  0.000000  0.000000  0.096724      1.000000
  0.072543 -0.072543  0.024181      1.000000
 -0.024181  0.024181 -0.024181      1.000000
 -0.048362  0.048362  0.000000      1.000000
 -0.072543  0.072543  0.024181      1.000000
  0.000000  0.000000 -0.048362      1.000000
  0.024181  0.024181 -0.024181      1.000000
  0.000000  0.048362  0.000000      1.000000
 -0.024181  0.072543  0.024181      1.000000
  0.048362  0.000000 -0.048362      1.000000
  0.048362  0.000000  0.000000      1.000000
  0.024181  0.024181  0.024181      1.000000
  0.000000  0.048362  0.048362      1.000000
  0.072543 -0.024181 -0.024181      1.000000
  0.072543 -0.024181  0.024181      1.000000
  0.048362  0.000000  0.048362      1.000000
  0.024181  0.024181  0.072543      1.000000
  0.096724 -0.048362  0.000000      1.000000
  0.000000  0.048362 -0.048362      1.000000
 -0.024181  0.072543 -0.024181      1.000000
 -0.048362  0.096724  0.000000      1.000000
  0.024181  0.024181 -0.072543      1.000000
  0.048362  0.048362 -0.048362      1.000000
  0.024181  0.072543 -0.024181      1.000000
  0.000000  0.096724  0.000000      1.000000
  0.072543  0.024181 -0.072543      1.000000
  0.072543  0.024181 -0.024181      1.000000
  0.048362  0.048362  0.000000      1.000000
  0.024181  0.072543  0.024181      1.000000
  0.096724  0.000000 -0.048362      1.000000
  0.096724  0.000000  0.000000      1.000000
  0.072543  0.024181  0.024181      1.000000
  0.048362  0.048362  0.048362      1.000000
  0.120906 -0.024181 -0.024181      1.000000
  0.024181  0.072543 -0.072543      1.000000
  0.000000  0.096724 -0.048362      1.000000
 -0.024181  0.120906 -0.024181      1.000000
  0.048362  0.048362 -0.096724      1.000000
 -0.024181 -0.024181  0.024181      1.000000
 -0.048362  0.000000  0.048362      1.000000
 -0.072543  0.024181  0.072543      1.000000
  0.000000 -0.048362  0.000000      1.000000
  0.000000 -0.048362  0.048362      1.000000
 -0.024181 -0.024181  0.072543      1.000000
 -0.048362  0.000000  0.096724      1.000000
  0.024181 -0.072543  0.024181      1.000000
  0.024181 -0.072543  0.072543      1.000000
  0.000000 -0.048362  0.096724      1.000000
 -0.024181 -0.024181  0.120906      1.000000
  0.048362 -0.096724  0.048362      1.000000
 -0.048362  0.000000  0.000000      1.000000
 -0.072543  0.024181  0.024181      1.000000
 -0.096724  0.048362  0.048362      1.000000
 -0.024181 -0.024181 -0.024181      1.000000
 


--------------------------------------------------------------------------------------------------------




 Dimension of arrays:
   k-points           NKPTS =     64   k-points in BZ     NKDIM =     64   number of bands    NBANDS=     56
   number of dos      NEDOS =    301   number of ions     NIONS =     10
   non local maximal  LDIM  =      8   non local SUM 2l+1 LMDIM =     32
   total plane-waves  NPLWV =  46656
   max r-space proj   IRMAX =      1   max aug-charges    IRDMAX=  10716
   dimension x,y,z NGX =    36 NGY =   36 NGZ =   36
   dimension x,y,z NGXF=    72 NGYF=   72 NGZF=   72
   support grid    NGXF=    72 NGYF=   72 NGZF=   72
   ions per type =               1   1   2   6
   NGX,Y,Z   is equivalent  to a cutoff of   8.19,  8.19,  8.19 a.u.
   NGXF,Y,Z  is equivalent  to a cutoff of  16.37, 16.37, 16.37 a.u.

 SYSTEM =  unknown system                          
 POSCAR =  CsHgAgCl                                

 Startparameter for this run:
   NWRITE =      2    write-flag & timer
   PREC   = normal    normal or accurate (medium, high low for compatibility)
   ISTART =      0    job   : 0-new  1-cont  2-samecut
   ICHARG =      2    charge: 1-file 2-atom 10-const
   ISPIN  =      2    spin polarized calculation?
   LNONCOLLINEAR =      F non collinear calculations
   LSORBIT =      F    spin-orbit coupling
   INIWAV =      1    electr: 0-lowe 1-rand  2-diag
   LASPH  =      F    aspherical Exc in radial PAW
 Electronic Relaxation 1
   ENCUT  =  350.0 eV  25.72 Ry    5.07 a.u.  11.15 11.15 11.15*2*pi/ulx,y,z
   ENINI  =  350.0     initial cutoff
   ENAUG  =  528.8 eV  augmentation charge cutoff
   NELM   =    180;   NELMIN=  2; NELMDL= -5     # of ELM steps 
   EDIFF  = 0.1E-05   stopping-criterion for ELM
   LREAL  =      F    real-space projection
   NLSPLINE    = F    spline interpolate recip. space projectors
   LCOMPAT=      F    compatible to vasp.4.4
   GGA_COMPAT  = T    GGA compatible to vasp.4.4-vasp.4.6
   LMAXPAW     = -100 max onsite density
   LMAXMIX     =    2 max onsite mixed and CHGCAR
   VOSKOWN=      0    Vosko Wilk Nusair interpolation
   ROPT   =    0.00000   0.00000   0.00000   0.00000
 Ionic relaxation
   EDIFFG = 0.1E-04   stopping-criterion for IOM
   NSW    =      0    number of steps for IOM
   NBLOCK =      1;   KBLOCK =      1    inner block; outer block 
   IBRION =     -1    ionic relax: 0-MD 1-quasi-New 2-CG
   NFREE  =      0    steps in history (QN), initial steepest desc. (CG)
   ISIF   =      2    stress and relaxation
   IWAVPR =     10    prediction:  0-non 1-charg 2-wave 3-comb
   ISYM   =     -1    0-nonsym 1-usesym 2-fastsym
   LCORR  =      T    Harris-Foulkes like correction to forces

   POTIM  = 0.5000    time-step for ionic-motion
   TEIN   =    0.0    initial temperature
   TEBEG  =    0.0;   TEEND  =   0.0 temperature during run
   SMASS  =  -3.00    Nose mass-parameter (am)
   estimated Nose-frequenzy (Omega)   =  0.10E-29 period in steps = 0.13E+47 mass=  -0.122E-26a.u.
   SCALEE = 1.0000    scale energy and forces
   NPACO  =    256;   APACO  = 10.0  distance and # of slots for P.C.
   PSTRESS=    0.0 pullay stress

  Mass of Ions in am
   POMASS = 200.59107.87132.90 35.45
  Ionic Valenz
   ZVAL   =  12.00 11.00  9.00  7.00
  Atomic Wigner-Seitz radii
   RWIGS  =  -1.00 -1.00 -1.00 -1.00
  virtual crystal weights 
   VCA    =   1.00  1.00  1.00  1.00
   NELECT =      83.0000    total number of electrons
   NUPDOWN=      -1.0000    fix difference up-down

 DOS related values:
   EMIN   =  10.00;   EMAX   =-10.00  energy-range for DOS
   EFERMI =   0.00
   ISMEAR =     0;   SIGMA  =   0.00  broadening in eV -4-tet -1-fermi 0-gaus

 Electronic relaxation 2 (details)
   IALGO  =     58    algorithm
   LDIAG  =      T    sub-space diagonalisation (order eigenvalues)
   LSUBROT=      F    optimize rotation matrix (better conditioning)
   TURBO    =      0    0=normal 1=particle mesh
   IRESTART =      0    0=no restart 2=restart with 2 vectors
   NREBOOT  =      0    no. of reboots
   NMIN     =      0    reboot dimension
   EREF     =   0.00    reference energy to select bands
   IMIX   =      4    mixing-type and parameters
     AMIX     =   0.40;   BMIX     =  1.00
     AMIX_MAG =   1.60;   BMIX_MAG =  1.00
     AMIN     =   0.10
     WC   =   100.;   INIMIX=   1;  MIXPRE=   1;  MAXMIX= -45

 Intra band minimization:
   WEIMIN = 0.0000     energy-eigenvalue tresh-hold
   EBREAK =  0.45E-08  absolut break condition
   DEPER  =   0.30     relativ break condition  

   TIME   =   0.40     timestep for ELM

  volume/ion in A,a.u.               =      27.63       186.44
  Fermi-wavevector in a.u.,A,eV,Ry     =   1.096454  2.071998 16.357082  1.202212
  Thomas-Fermi vector in A             =   2.232796
 
 Write flags
   LWAVE        =      F    write WAVECAR
   LDOWNSAMPLE  =      F    k-point downsampling of WAVECAR
   LCHARG       =      T    write CHGCAR
   LVTOT        =      F    write LOCPOT, total local potential
   LVHAR        =      F    write LOCPOT, Hartree potential only
   LELF         =      F    write electronic localiz. function (ELF)
   LORBIT       =     10    0 simple, 1 ext, 2 COOP (PROOUT), +10 PAW based schemes


 Dipole corrections
   LMONO  =      F    monopole corrections only (constant potential shift)
   LDIPOL =      F    correct potential (dipole corrections)
   IDIPOL =      0    1-x, 2-y, 3-z, 4-all directions 
   EPSILON=  1.0000000 bulk dielectric constant

 Exchange correlation treatment:
   GGA     =    PE    GGA type
   LEXCH   =     8    internal setting for exchange type
   LIBXC   =     F    Libxc                    
   VOSKOWN =     0    Vosko Wilk Nusair interpolation
   LHFCALC =     F    Hartree Fock is set to
   LHFONE  =     F    Hartree Fock one center treatment
   AEXX    =    0.0000 exact exchange contribution

 Linear response parameters
   LEPSILON=     F    determine dielectric tensor
   LRPA    =     F    only Hartree local field effects (RPA)
   LNABLA  =     F    use nabla operator in PAW spheres
   LVEL    =     F    velocity operator in full k-point grid
   CSHIFT  =0.1000    complex shift for real part using Kramers Kronig
   OMEGAMAX=  -1.0    maximum frequency
   DEG_THRESHOLD= 0.2000000E-02 threshold for treating states as degnerate
   RTIME   =   -0.100 relaxation time in fs
  (WPLASMAI=    0.000 imaginary part of plasma frequency in eV, 0.658/RTIME)
   DFIELD  = 0.0000000 0.0000000 0.0000000 field for delta impulse in time
 
  Optional k-point grid parameters
   LKPOINTS_OPT  =     F    use optional k-point grid
   KPOINTS_OPT_MODE=     1    mode for optional k-point grid
 
 Orbital magnetization related:
   ORBITALMAG=     F  switch on orbital magnetization
   LCHIMAG   =     F  perturbation theory with respect to B field
   DQ        =  0.001000  dq finite difference perturbation B field
   LLRAUG    =     F  two centre corrections for induced B field



--------------------------------------------------------------------------------------------------------


 Static calculation
 charge density and potential will be updated during run
 spin polarized calculation
 Conjugate gradient for all bands (Freysoldt, et al. PRB 79, 241103 (2009))
 preconditioned conjugated gradient                                        
 perform sub-space diagonalisation
    before iterative eigenvector-optimisation
 modified Broyden-mixing scheme, WC =      100.0
 initial mixing is a Kerker type mixing with AMIX =  0.4000 and BMIX =      1.0000
 Hartree-type preconditioning will be used
 using additional bands           14
 reciprocal scheme for non local part
 use partial core corrections
 no Harris-corrections to forces 
 use gradient corrections 
 use of overlap-Matrix (Vanderbilt PP)
 Gauss-broadening in eV      SIGMA  =   0.00


--------------------------------------------------------------------------------------------------------


  energy-cutoff  :      350.00
  volume of cell :      276.27
      direct lattice vectors                 reciprocal lattice vectors
     0.000000000  5.169323800  5.169323800    -0.096724450  0.096724450  0.096724450
     5.169323800  0.000000000  5.169323800     0.096724450 -0.096724450  0.096724450
     5.169323800  5.169323800  0.000000000     0.096724450  0.096724450 -0.096724450

  length of vectors
     7.310527826  7.310527826  7.310527826     0.167531661  0.167531661  0.167531661


 
 k-points in units of 2pi/SCALE and weight: k-points                                
   0.00000000  0.00000000  0.00000000       0.016
  -0.02418111  0.02418111  0.02418111       0.016
  -0.04836222  0.04836222  0.04836222       0.016
   0.02418111 -0.02418111 -0.02418111       0.016
   0.02418111 -0.02418111  0.02418111       0.016
   0.00000000  0.00000000  0.04836222       0.016
  -0.02418111  0.02418111  0.07254334       0.016
   0.04836222 -0.04836222  0.00000000       0.016
   0.04836222 -0.04836222  0.04836222       0.016
   0.02418111 -0.02418111  0.07254334       0.016
   0.00000000  0.00000000  0.09672445       0.016
   0.07254334 -0.07254334  0.02418111       0.016
  -0.02418111  0.02418111 -0.02418111       0.016
  -0.04836222  0.04836222  0.00000000       0.016
  -0.07254334  0.07254334  0.02418111       0.016
   0.00000000  0.00000000 -0.04836222       0.016
   0.02418111  0.02418111 -0.02418111       0.016
   0.00000000  0.04836222  0.00000000       0.016
  -0.02418111  0.07254334  0.02418111       0.016
   0.04836222  0.00000000 -0.04836222       0.016
   0.04836222  0.00000000  0.00000000       0.016
   0.02418111  0.02418111  0.02418111       0.016
   0.00000000  0.04836222  0.04836222       0.016
   0.07254334 -0.02418111 -0.02418111       0.016
   0.07254334 -0.02418111  0.02418111       0.016
   0.04836222  0.00000000  0.04836222       0.016
   0.02418111  0.02418111  0.07254334       0.016
   0.09672445 -0.04836222  0.00000000       0.016
   0.00000000  0.04836222 -0.04836222       0.016
  -0.02418111  0.07254334 -0.02418111       0.016
  -0.04836222  0.09672445  0.00000000       0.016
   0.02418111  0.02418111 -0.07254334       0.016
   0.04836222  0.04836222 -0.04836222       0.016
   0.02418111  0.07254334 -0.02418111       0.016
   0.00000000  0.09672445  0.00000000       0.016
   0.07254334  0.02418111 -0.07254334       0.016
   0.07254334  0.02418111 -0.02418111       0.016
   0.04836222  0.04836222  0.00000000       0.016
   0.02418111  0.07254334  0.02418111       0.016
   0.09672445  0.00000000 -0.04836222       0.016
   0.09672445  0.00000000  0.00000000       0.016
   0.07254334  0.02418111  0.02418111       0.016
   0.04836222  0.04836222  0.04836222       0.016
   0.12090556 -0.02418111 -0.02418111       0.016
   0.02418111  0.07254334 -0.07254334       0.016
   0.00000000  0.09672445 -0.04836222       0.016
  -0.02418111  0.12090556 -0.02418111       0.016
   0.04836222  0.04836222 -0.09672445       0.016
  -0.02418111 -0.02418111  0.02418111       0.016
  -0.04836222  0.00000000  0.04836222       0.016
  -0.07254334  0.02418111  0.07254334       0.016
   0.00000000 -0.04836222  0.00000000       0.016
   0.00000000 -0.04836222  0.04836222       0.016
  -0.02418111 -0.02418111  0.07254334       0.016
  -0.04836222  0.00000000  0.09672445       0.016
   0.02418111 -0.07254334  0.02418111       0.016
   0.02418111 -0.07254334  0.07254334       0.016
   0.00000000 -0.04836222  0.09672445       0.016
  -0.02418111 -0.02418111  0.12090556       0.016
   0.04836222 -0.09672445  0.04836222       0.016
  -0.04836222  0.00000000  0.00000000       0.016
  -0.07254334  0.02418111  0.02418111       0.016
  -0.09672445  0.04836222  0.04836222       0.016
  -0.02418111 -0.02418111 -0.02418111       0.016
 
 k-points in reciprocal lattice and weights: k-points                                
   0.00000000  0.00000000  0.00000000       0.016
   0.25000000  0.00000000  0.00000000       0.016
   0.50000000  0.00000000  0.00000000       0.016
  -0.25000000  0.00000000  0.00000000       0.016
   0.00000000  0.25000000  0.00000000       0.016
   0.25000000  0.25000000  0.00000000       0.016
   0.50000000  0.25000000  0.00000000       0.016
  -0.25000000  0.25000000  0.00000000       0.016
   0.00000000  0.50000000  0.00000000       0.016
   0.25000000  0.50000000  0.00000000       0.016
   0.50000000  0.50000000  0.00000000       0.016
  -0.25000000  0.50000000  0.00000000       0.016
   0.00000000 -0.25000000  0.00000000       0.016
   0.25000000 -0.25000000  0.00000000       0.016
   0.50000000 -0.25000000  0.00000000       0.016
  -0.25000000 -0.25000000  0.00000000       0.016
   0.00000000  0.00000000  0.25000000       0.016
   0.25000000  0.00000000  0.25000000       0.016
   0.50000000  0.00000000  0.25000000       0.016
  -0.25000000  0.00000000  0.25000000       0.016
   0.00000000  0.25000000  0.25000000       0.016
   0.25000000  0.25000000  0.25000000       0.016
   0.50000000  0.25000000  0.25000000       0.016
  -0.25000000  0.25000000  0.25000000       0.016
   0.00000000  0.50000000  0.25000000       0.016
   0.25000000  0.50000000  0.25000000       0.016
   0.50000000  0.50000000  0.25000000       0.016
  -0.25000000  0.50000000  0.25000000       0.016
   0.00000000 -0.25000000  0.25000000       0.016
   0.25000000 -0.25000000  0.25000000       0.016
   0.50000000 -0.25000000  0.25000000       0.016
  -0.25000000 -0.25000000  0.25000000       0.016
   0.00000000  0.00000000  0.50000000       0.016
   0.25000000  0.00000000  0.50000000       0.016
   0.50000000  0.00000000  0.50000000       0.016
  -0.25000000  0.00000000  0.50000000       0.016
   0.00000000  0.25000000  0.50000000       0.016
   0.25000000  0.25000000  0.50000000       0.016
   0.50000000  0.25000000  0.50000000       0.016
  -0.25000000  0.25000000  0.50000000       0.016
   0.00000000  0.50000000  0.50000000       0.016
   0.25000000  0.50000000  0.50000000       0.016
   0.50000000  0.50000000  0.50000000       0.016
  -0.25000000  0.50000000  0.50000000       0.016
   0.00000000 -0.25000000  0.50000000       0.016
   0.25000000 -0.25000000  0.50000000       0.016
   0.50000000 -0.25000000  0.50000000       0.016
  -0.25000000 -0.25000000  0.50000000       0.016
   0.00000000  0.00000000 -0.25000000       0.016
   0.25000000  0.00000000 -0.25000000       0.016
   0.50000000  0.00000000 -0.25000000       0.016
  -0.25000000  0.00000000 -0.25000000       0.016
   0.00000000  0.25000000 -0.25000000       0.016
   0.25000000  0.25000000 -0.25000000       0.016
   0.50000000  0.25000000 -0.25000000       0.016
  -0.25000000  0.25000000 -0.25000000       0.016
   0.00000000  0.50000000 -0.25000000       0.016
   0.25000000  0.50000000 -0.25000000       0.016
   0.50000000  0.50000000 -0.25000000       0.016
  -0.25000000  0.50000000 -0.25000000       0.016
   0.00000000 -0.25000000 -0.25000000       0.016
   0.25000000 -0.25000000 -0.25000000       0.016
   0.50000000 -0.25000000 -0.25000000       0.016
  -0.25000000 -0.25000000 -0.25000000       0.016
 
 position of ions in fractional coordinates (direct lattice) 
   0.00000000  0.00000000  0.00000000
   0.50000000  0.50000000  0.50000000
   0.25000000  0.25000000  0.25000000
   0.75000000  0.75000000  0.75000000
   0.74676506  0.25323494  0.25323494
   0.25323494  0.74676506  0.74676506
   0.25323494  0.74676506  0.25323494
   0.74676506  0.25323494  0.74676506
   0.25323494  0.25323494  0.74676506
   0.74676506  0.74676506  0.25323494
 
 position of ions in cartesian coordinates  (Angst):
   0.00000000  0.00000000  0.00000000
   5.16932380  5.16932380  5.16932380
   2.58466190  2.58466190  2.58466190
   7.75398570  7.75398570  7.75398570
   2.61810677  5.16932380  5.16932380
   7.72054083  5.16932380  5.16932380
   5.16932380  2.61810677  5.16932380
   5.16932380  7.72054083  5.16932380
   5.16932380  5.16932380  2.61810677
   5.16932380  5.16932380  7.72054083
 


--------------------------------------------------------------------------------------------------------


 k-point   1 :   0.0000 0.0000 0.0000  plane waves:    4111
 k-point   2 :   0.2500 0.0000 0.0000  plane waves:    4107
 k-point   3 :   0.5000 0.0000 0.0000  plane waves:    4092
 k-point   4 :  -0.2500 0.0000 0.0000  plane waves:    4107
 k-point   5 :   0.0000 0.2500 0.0000  plane waves:    4107
 k-point   6 :   0.2500 0.2500 0.0000  plane waves:    4088
 k-point   7 :   0.5000 0.2500 0.0000  plane waves:    4111
 k-point   8 :  -0.2500 0.2500 0.0000  plane waves:    4121
 k-point   9 :   0.0000 0.5000 0.0000  plane waves:    4092
 k-point  10 :   0.2500 0.5000 0.0000  plane waves:    4111
 k-point  11 :   0.5000 0.5000 0.0000  plane waves:    4088
 k-point  12 :  -0.2500 0.5000 0.0000  plane waves:    4111
 k-point  13 :   0.0000-0.2500 0.0000  plane waves:    4107
 k-point  14 :   0.2500-0.2500 0.0000  plane waves:    4121
 k-point  15 :   0.5000-0.2500 0.0000  plane waves:    4111
 k-point  16 :  -0.2500-0.2500 0.0000  plane waves:    4088
 k-point  17 :   0.0000 0.0000 0.2500  plane waves:    4107
 k-point  18 :   0.2500 0.0000 0.2500  plane waves:    4088
 k-point  19 :   0.5000 0.0000 0.2500  plane waves:    4111
 k-point  20 :  -0.2500 0.0000 0.2500  plane waves:    4121
 k-point  21 :   0.0000 0.2500 0.2500  plane waves:    4088
 k-point  22 :   0.2500 0.2500 0.2500  plane waves:    4107
 k-point  23 :   0.5000 0.2500 0.2500  plane waves:    4121
 k-point  24 :  -0.2500 0.2500 0.2500  plane waves:    4111
 k-point  25 :   0.0000 0.5000 0.2500  plane waves:    4111
 k-point  26 :   0.2500 0.5000 0.2500  plane waves:    4121
 k-point  27 :   0.5000 0.5000 0.2500  plane waves:    4111
 k-point  28 :  -0.2500 0.5000 0.2500  plane waves:    4128
 k-point  29 :   0.0000-0.2500 0.2500  plane waves:    4121
 k-point  30 :   0.2500-0.2500 0.2500  plane waves:    4111
 k-point  31 :   0.5000-0.2500 0.2500  plane waves:    4128
 k-point  32 :  -0.2500-0.2500 0.2500  plane waves:    4111
 k-point  33 :   0.0000 0.0000 0.5000  plane waves:    4092
 k-point  34 :   0.2500 0.0000 0.5000  plane waves:    4111
 k-point  35 :   0.5000 0.0000 0.5000  plane waves:    4088
 k-point  36 :  -0.2500 0.0000 0.5000  plane waves:    4111
 k-point  37 :   0.0000 0.2500 0.5000  plane waves:    4111
 k-point  38 :   0.2500 0.2500 0.5000  plane waves:    4121
 k-point  39 :   0.5000 0.2500 0.5000  plane waves:    4111
 k-point  40 :  -0.2500 0.2500 0.5000  plane waves:    4128
 k-point  41 :   0.0000 0.5000 0.5000  plane waves:    4088
 k-point  42 :   0.2500 0.5000 0.5000  plane waves:    4111
 k-point  43 :   0.5000 0.5000 0.5000  plane waves:    4092
 k-point  44 :  -0.2500 0.5000 0.5000  plane waves:    4111
 k-point  45 :   0.0000-0.2500 0.5000  plane waves:    4111
 k-point  46 :   0.2500-0.2500 0.5000  plane waves:    4128
 k-point  47 :   0.5000-0.2500 0.5000  plane waves:    4111
 k-point  48 :  -0.2500-0.2500 0.5000  plane waves:    4121
 k-point  49 :   0.0000 0.0000-0.2500  plane waves:    4107
 k-point  50 :   0.2500 0.0000-0.2500  plane waves:    4121
 k-point  51 :   0.5000 0.0000-0.2500  plane waves:    4111
 k-point  52 :  -0.2500 0.0000-0.2500  plane waves:    4088
 k-point  53 :   0.0000 0.2500-0.2500  plane waves:    4121
 k-point  54 :   0.2500 0.2500-0.2500  plane waves:    4111
 k-point  55 :   0.5000 0.2500-0.2500  plane waves:    4128
 k-point  56 :  -0.2500 0.2500-0.2500  plane waves:    4111
 k-point  57 :   0.0000 0.5000-0.2500  plane waves:    4111
 k-point  58 :   0.2500 0.5000-0.2500  plane waves:    4128
 k-point  59 :   0.5000 0.5000-0.2500  plane waves:    4111
 k-point  60 :  -0.2500 0.5000-0.2500  plane waves:    4121
 k-point  61 :   0.0000-0.2500-0.2500  plane waves:    4088
 k-point  62 :   0.2500-0.2500-0.2500  plane waves:    4111
 k-point  63 :   0.5000-0.2500-0.2500  plane waves:    4121
 k-point  64 :  -0.2500-0.2500-0.2500  plane waves:    4107

 maximum and minimum number of plane-waves per node :      4128     4088

 maximum number of plane-waves:      4128
 maximum index in each direction: 
   IXMAX=   11   IYMAX=   11   IZMAX=   11
   IXMIN=  -11   IYMIN=  -11   IZMIN=  -11


 serial   3D FFT for wavefunctions
 parallel 3D FFT for charge:
    minimum data exchange during FFTs selected (reduces bandwidth)


 total amount of memory used by VASP MPI-rank0   496420. kBytes
=======================================================================

   base      :      30000. kBytes
   nonl-proj :     271193. kBytes
   fftplans  :       1814. kBytes
   grid      :       8356. kBytes
   one-center:        983. kBytes
   wavefun   :     184074. kBytes
 
     INWAV:  cpu time      0.0000: real time      0.0000
 Broyden mixing: mesh for mixing (old mesh)
   NGX = 23   NGY = 23   NGZ = 23
  (NGX  = 72   NGY  = 72   NGZ  = 72)
  gives a total of  12167 points

 initial charge density was supplied:
 charge density of overlapping atoms calculated
 number of electron      83.0000000 magnetization       3.4000000
 keeping initial charge density in first step


--------------------------------------------------------------------------------------------------------


 Maximum index for augmentation-charges         1255 (set IRDMAX)


--------------------------------------------------------------------------------------------------------


 First call to EWALD:  gamma=   0.272
 Maximum number of real-space cells 3x 3x 3
 Maximum number of reciprocal cells 3x 3x 3

    FEWALD:  cpu time      0.0046: real time      0.0046


--------------------------------------- Iteration      1(   1)  ---------------------------------------


    POTLOK:  cpu time      0.0580: real time      0.0714
    SETDIJ:  cpu time      0.0101: real time      0.0152
    TRIAL :  cpu time      1.3158: real time      1.3902
    CORREC:  cpu time      0.0003: real time      0.0003
    --------------------------------------------
      LOOP:  cpu time      1.4390: real time      1.5324

 eigenvalue-minimisations  : 14336
 total energy-change (2. order) : 0.6243979E+03  (-0.2999198E+04)
 number of electron      83.0000000 magnetization       3.4000000
 augmentation part       83.0000000 magnetization       3.4000000

 Free energy of the ion-electron system (eV)
  ---------------------------------------------------
  alpha Z        PSCENC =       226.04517191
  Ewald energy   TEWEN  =     -4531.05705461
  -Hartree energ DENC   =     -1371.10525797
  -exchange      EXHF   =         0.00000000
  -V(xc)+E(xc)   XCENC  =        46.46733469
  PAW double counting   =      4964.13238460    -4777.96609482
  entropy T*S    EENTRO =        -0.00000000
  eigenvalues    EBANDS =       315.92000050
  atomic energy  EATOM  =      5751.96140765
  ---------------------------------------------------
  free energy    TOTEN  =       624.39789195 eV

  energy without entropy =      624.39789195  energy(sigma->0) =      624.39789195


--------------------------------------------------------------------------------------------------------




--------------------------------------- Iteration      1(   2)  ---------------------------------------


    TRIAL :  cpu time      1.6039: real time      1.6020
    CORREC:  cpu time      0.0003: real time      0.0003
    --------------------------------------------
      LOOP:  cpu time      1.6046: real time      1.6033

 eigenvalue-minimisations  : 19256
 total energy-change (2. order) :-0.5941956E+03  (-0.5749332E+03)
 number of electron      83.0000000 magnetization       3.4000000
 augmentation part       83.0000000 magnetization       3.4000000

 Free energy of the ion-electron system (eV)
  ---------------------------------------------------
  alpha Z        PSCENC =       226.04517191
  Ewald energy   TEWEN  =     -4531.05705461
  -Hartree energ DENC   =     -1371.10525797
  -exchange      EXHF   =         0.00000000
  -V(xc)+E(xc)   XCENC  =        46.46733469
  PAW double counting   =      4964.13238460    -4777.96609482
  entropy T*S    EENTRO =        -0.00000000
  eigenvalues    EBANDS =      -278.27558229
  atomic energy  EATOM  =      5751.96140765
  ---------------------------------------------------
  free energy    TOTEN  =        30.20230916 eV

  energy without entropy =       30.20230916  energy(sigma->0) =       30.20230916


--------------------------------------------------------------------------------------------------------




--------------------------------------- Iteration      1(   3)  ---------------------------------------


    TRIAL :  cpu time      1.4859: real time      1.4842
    CORREC:  cpu time      0.0005: real time      0.0005
    --------------------------------------------
      LOOP:  cpu time      1.4865: real time      1.4849

 eigenvalue-minimisations  : 17984
 total energy-change (2. order) :-0.5995907E+02  (-0.5930300E+02)
 number of electron      83.0000000 magnetization       3.4000000
 augmentation part       83.0000000 magnetization       3.4000000

 Free energy of the ion-electron system (eV)
  ---------------------------------------------------
  alpha Z        PSCENC =       226.04517191
  Ewald energy   TEWEN  =     -4531.05705461
  -Hartree energ DENC   =     -1371.10525797
  -exchange      EXHF   =         0.00000000
  -V(xc)+E(xc)   XCENC  =        46.46733469
  PAW double counting   =      4964.13238460    -4777.96609482
  entropy T*S    EENTRO =        -0.00000007
  eigenvalues    EBANDS =      -338.23465477
  atomic energy  EATOM  =      5751.96140765
  ---------------------------------------------------
  free energy    TOTEN  =       -29.75676339 eV

  energy without entropy =      -29.75676332  energy(sigma->0) =      -29.75676336


--------------------------------------------------------------------------------------------------------




--------------------------------------- Iteration      1(   4)  ---------------------------------------


    TRIAL :  cpu time      1.4855: real time      1.4856
    CORREC:  cpu time      0.0005: real time      0.0005
    --------------------------------------------
      LOOP:  cpu time      1.4862: real time      1.4862

 eigenvalue-minimisations  : 17880
 total energy-change (2. order) :-0.2081228E+01  (-0.2074564E+01)
 number of electron      83.0000000 magnetization       3.4000000
 augmentation part       83.0000000 magnetization       3.4000000

 Free energy of the ion-electron system (eV)
  ---------------------------------------------------
  alpha Z        PSCENC =       226.04517191
  Ewald energy   TEWEN  =     -4531.05705461
  -Hartree energ DENC   =     -1371.10525797
  -exchange      EXHF   =         0.00000000
  -V(xc)+E(xc)   XCENC  =        46.46733469
  PAW double counting   =      4964.13238460    -4777.96609482
  entropy T*S    EENTRO =        -0.00000426
  eigenvalues    EBANDS =      -340.31587859
  atomic energy  EATOM  =      5751.96140765
  ---------------------------------------------------
  free energy    TOTEN  =       -31.83799140 eV

  energy without entropy =      -31.83798714  energy(sigma->0) =      -31.83798927


--------------------------------------------------------------------------------------------------------




--------------------------------------- Iteration      1(   5)  ---------------------------------------


    TRIAL :  cpu time      1.6239: real time      1.6220
    CORREC:  cpu time      0.0005: real time      0.0005
    CHARGE:  cpu time      0.0414: real time      0.0413
    --------------------------------------------
      LOOP:  cpu time      1.6660: real time      1.6640

 eigenvalue-minimisations  : 20168
 total energy-change (2. order) :-0.1143566E+00  (-0.1143376E+00)
 number of electron      82.9999950 magnetization       0.9999998
 augmentation part        0.7433722 magnetization       0.5361510

 Free energy of the ion-electron system (eV)
  ---------------------------------------------------
  alpha Z        PSCENC =       226.04517191
  Ewald energy   TEWEN  =     -4531.05705461
  -Hartree energ DENC   =     -1371.10525797
  -exchange      EXHF   =         0.00000000
  -V(xc)+E(xc)   XCENC  =        46.46733469
  PAW double counting   =      4964.13238460    -4777.96609482
  entropy T*S    EENTRO =        -0.00000517
  eigenvalues    EBANDS =      -340.43023427
  atomic energy  EATOM  =      5751.96140765
  ---------------------------------------------------
  free energy    TOTEN  =       -31.95234800 eV

  energy without entropy =      -31.95234282  energy(sigma->0) =      -31.95234541


--------------------------------------------------------------------------------------------------------




--------------------------------------- Iteration      1(   6)  ---------------------------------------


    POTLOK:  cpu time      0.0464: real time      0.0464
    SETDIJ:  cpu time      0.0078: real time      0.0078
    TRIAL :  cpu time      0.7334: real time      0.7359
    CORREC:  cpu time      0.1996: real time      0.1999
    CHARGE:  cpu time      0.0389: real time      0.0389
    --------------------------------------------
      LOOP:  cpu time      1.0264: real time      1.0293

 eigenvalue-minimisations  :     0
 total energy-change (2. order) : 0.8944403E+01  (-0.5878300E+01)
 number of electron      82.9999948 magnetization       0.7812499
 augmentation part        1.4848358 magnetization       0.3539093

 Free energy of the ion-electron system (eV)
  ---------------------------------------------------
  alpha Z        PSCENC =       226.04517191
  Ewald energy   TEWEN  =     -4531.05705461
  -Hartree energ DENC   =     -1310.43218635
  -exchange      EXHF   =         0.00000000
  -V(xc)+E(xc)   XCENC  =        47.27635687
  PAW double counting   =      5984.86543727    -5799.95656484
  entropy T*S    EENTRO =        -0.00000155
  eigenvalues    EBANDS =      -391.71050790
  atomic energy  EATOM  =      5751.96140765
  ---------------------------------------------------
  free energy    TOTEN  =       -23.00794518 eV

  energy without entropy =      -23.00794362  energy(sigma->0) =      -23.00794440


--------------------------------------------------------------------------------------------------------




--------------------------------------- Iteration      1(   7)  ---------------------------------------


    POTLOK:  cpu time      0.0449: real time      0.0448
    SETDIJ:  cpu time      0.0078: real time      0.0078
    TRIAL :  cpu time      0.7412: real time      0.7404
    CORREC:  cpu time      0.1984: real time      0.1982
    CHARGE:  cpu time      0.0389: real time      0.0389
    --------------------------------------------
      LOOP:  cpu time      1.0315: real time      1.0304

 eigenvalue-minimisations  :     0
 total energy-change (2. order) :-0.5918585E+01  (-0.7673167E+00)
 number of electron      82.9999948 magnetization       0.6562499
 augmentation part        1.4446679 magnetization       0.2515131

 Free energy of the ion-electron system (eV)
  ---------------------------------------------------
  alpha Z        PSCENC =       226.04517191
  Ewald energy   TEWEN  =     -4531.05705461
  -Hartree energ DENC   =     -1355.79191051
  -exchange      EXHF   =         0.00000000
  -V(xc)+E(xc)   XCENC  =        47.10555768
  PAW double counting   =      6143.65718645    -5960.36209840
  entropy T*S    EENTRO =        -0.00000000
  eigenvalues    EBANDS =      -350.48478851
  atomic energy  EATOM  =      5751.96140765
  ---------------------------------------------------
  free energy    TOTEN  =       -28.92652990 eV

  energy without entropy =      -28.92652990  energy(sigma->0) =      -28.92652990


--------------------------------------------------------------------------------------------------------




--------------------------------------- Iteration      1(   8)  ---------------------------------------


    POTLOK:  cpu time      0.0447: real time      0.0445
    SETDIJ:  cpu time      0.0077: real time      0.0077
    TRIAL :  cpu time      0.7396: real time      0.7388
    CORREC:  cpu time      0.2006: real time      0.2004
    CHARGE:  cpu time      0.0392: real time      0.0391
    --------------------------------------------
      LOOP:  cpu time      1.0324: real time      1.0310

 eigenvalue-minimisations  :     0
 total energy-change (2. order) :-0.6473991E+00  (-0.2879755E+00)
 number of electron      82.9999948 magnetization       0.6562500
 augmentation part        1.3542358 magnetization       0.1820346

 Free energy of the ion-electron system (eV)
  ---------------------------------------------------
  alpha Z        PSCENC =       226.04517191
  Ewald energy   TEWEN  =     -4531.05705461
  -Hartree energ DENC   =     -1349.88277622
  -exchange      EXHF   =         0.00000000
  -V(xc)+E(xc)   XCENC  =        46.32443791
  PAW double counting   =      6263.02708582    -6079.43793426
  entropy T*S    EENTRO =        -0.00000173
  eigenvalues    EBANDS =      -356.55426715
  atomic energy  EATOM  =      5751.96140765
  ---------------------------------------------------
  free energy    TOTEN  =       -29.57392895 eV

  energy without entropy =      -29.57392722  energy(sigma->0) =      -29.57392809


--------------------------------------------------------------------------------------------------------




--------------------------------------- Iteration      1(   9)  ---------------------------------------


    POTLOK:  cpu time      0.0446: real time      0.0446
    SETDIJ:  cpu time      0.0057: real time      0.0057
    TRIAL :  cpu time      0.7408: real time      0.7398
    CORREC:  cpu time      0.2009: real time      0.2007
    CHARGE:  cpu time      0.0389: real time      0.0389
    --------------------------------------------
      LOOP:  cpu time      1.0312: real time      1.0300

 eigenvalue-minimisations  :     0
 total energy-change (2. order) :-0.2913230E+00  (-0.7343148E-01)
 number of electron      82.9999948 magnetization       0.5937500
 augmentation part        1.3827471 magnetization       0.1512613

 Free energy of the ion-electron system (eV)
  ---------------------------------------------------
  alpha Z        PSCENC =       226.04517191
  Ewald energy   TEWEN  =     -4531.05705461
  -Hartree energ DENC   =     -1350.41276357
  -exchange      EXHF   =         0.00000000
  -V(xc)+E(xc)   XCENC  =        46.19028435
  PAW double counting   =      6281.02104498    -6096.83951551
  entropy T*S    EENTRO =        -0.00000282
  eigenvalues    EBANDS =      -356.77382539
  atomic energy  EATOM  =      5751.96140765
  ---------------------------------------------------
  free energy    TOTEN  =       -29.86525192 eV

  energy without entropy =      -29.86524911  energy(sigma->0) =      -29.86525051


--------------------------------------------------------------------------------------------------------




--------------------------------------- Iteration      1(  10)  ---------------------------------------


    POTLOK:  cpu time      0.0443: real time      0.0443
    SETDIJ:  cpu time      0.0079: real time      0.0078
    TRIAL :  cpu time      0.7370: real time      0.7362
    CORREC:  cpu time      0.1973: real time      0.1970
    CHARGE:  cpu time      0.0390: real time      0.0390
    --------------------------------------------
      LOOP:  cpu time      1.0258: real time      1.0246

 eigenvalue-minimisations  :     0
 total energy-change (2. order) :-0.6867239E-01  (-0.1749999E-01)
 number of electron      82.9999948 magnetization       0.5937500
 augmentation part        1.3877176 magnetization       0.1472599

 Free energy of the ion-electron system (eV)
  ---------------------------------------------------
  alpha Z        PSCENC =       226.04517191
  Ewald energy   TEWEN  =     -4531.05705461
  -Hartree energ DENC   =     -1356.59125953
  -exchange      EXHF   =         0.00000000
  -V(xc)+E(xc)   XCENC  =        46.50410248
  PAW double counting   =      6237.43260925    -6053.26529596
  entropy T*S    EENTRO =        -0.00000329
  eigenvalues    EBANDS =      -350.96360269
  atomic energy  EATOM  =      5751.96140765
  ---------------------------------------------------
  free energy    TOTEN  =       -29.93392431 eV

  energy without entropy =      -29.93392102  energy(sigma->0) =      -29.93392267


--------------------------------------------------------------------------------------------------------




--------------------------------------- Iteration      1(  11)  ---------------------------------------


    POTLOK:  cpu time      0.0446: real time      0.0445
    SETDIJ:  cpu time      0.0078: real time      0.0078
    TRIAL :  cpu time      0.7396: real time      0.7388
    CORREC:  cpu time      0.2000: real time      0.1998
    CHARGE:  cpu time      0.0388: real time      0.0387
    --------------------------------------------
      LOOP:  cpu time      1.0312: real time      1.0299

 eigenvalue-minimisations  :     0
 total energy-change (2. order) :-0.1749785E-01  (-0.4975215E-02)
 number of electron      82.9999948 magnetization       0.5937500
 augmentation part        1.3879139 magnetization       0.1445800

 Free energy of the ion-electron system (eV)
  ---------------------------------------------------
  alpha Z        PSCENC =       226.04517191
  Ewald energy   TEWEN  =     -4531.05705461
  -Hartree energ DENC   =     -1356.23294809
  -exchange      EXHF   =         0.00000000
  -V(xc)+E(xc)   XCENC  =        46.53106322
  PAW double counting   =      6219.31100623    -6035.16387705
  entropy T*S    EENTRO =        -0.00000277
  eigenvalues    EBANDS =      -351.34618812
  atomic energy  EATOM  =      5751.96140765
  ---------------------------------------------------
  free energy    TOTEN  =       -29.95142216 eV

  energy without entropy =      -29.95141939  energy(sigma->0) =      -29.95142078


--------------------------------------------------------------------------------------------------------




--------------------------------------- Iteration      1(  12)  ---------------------------------------


    POTLOK:  cpu time      0.0433: real time      0.0434
    SETDIJ:  cpu time      0.0078: real time      0.0078
    TRIAL :  cpu time      0.7429: real time      0.7421
    CORREC:  cpu time      0.1990: real time      0.1987
    CHARGE:  cpu time      0.0390: real time      0.0389
    --------------------------------------------
      LOOP:  cpu time      1.0326: real time      1.0315

 eigenvalue-minimisations  :     0
 total energy-change (2. order) :-0.5032035E-02  (-0.1836102E-02)
 number of electron      82.9999948 magnetization       0.5937500
 augmentation part        1.3873100 magnetization       0.1421288

 Free energy of the ion-electron system (eV)
  ---------------------------------------------------
  alpha Z        PSCENC =       226.04517191
  Ewald energy   TEWEN  =     -4531.05705461
  -Hartree energ DENC   =     -1354.98453575
  -exchange      EXHF   =         0.00000000
  -V(xc)+E(xc)   XCENC  =        46.46005475
  PAW double counting   =      6216.99336185    -6032.84598561
  entropy T*S    EENTRO =        -0.00000280
  eigenvalues    EBANDS =      -352.52887161
  atomic energy  EATOM  =      5751.96140765
  ---------------------------------------------------
  free energy    TOTEN  =       -29.95645419 eV

  energy without entropy =      -29.95645139  energy(sigma->0) =      -29.95645279


--------------------------------------------------------------------------------------------------------




--------------------------------------- Iteration      1(  13)  ---------------------------------------


    POTLOK:  cpu time      0.0438: real time      0.0438
    SETDIJ:  cpu time      0.0070: real time      0.0070
    TRIAL :  cpu time      0.7245: real time      0.7235
    CORREC:  cpu time      0.2013: real time      0.2011
    CHARGE:  cpu time      0.0389: real time      0.0389
    --------------------------------------------
      LOOP:  cpu time      1.0162: real time      1.0150

 eigenvalue-minimisations  :     0
 total energy-change (2. order) :-0.1821516E-02  (-0.6415735E-03)
 number of electron      82.9999948 magnetization       0.5937500
 augmentation part        1.3852866 magnetization       0.1403531

 Free energy of the ion-electron system (eV)
  ---------------------------------------------------
  alpha Z        PSCENC =       226.04517191
  Ewald energy   TEWEN  =     -4531.05705461
  -Hartree energ DENC   =     -1354.61241570
  -exchange      EXHF   =         0.00000000
  -V(xc)+E(xc)   XCENC  =        46.42641749
  PAW double counting   =      6217.07548101    -6032.92781694
  entropy T*S    EENTRO =        -0.00000279
  eigenvalues    EBANDS =      -352.86946372
  atomic energy  EATOM  =      5751.96140765
  ---------------------------------------------------
  free energy    TOTEN  =       -29.95827571 eV

  energy without entropy =      -29.95827292  energy(sigma->0) =      -29.95827431


--------------------------------------------------------------------------------------------------------




--------------------------------------- Iteration      1(  14)  ---------------------------------------


    POTLOK:  cpu time      0.0442: real time      0.0442
    SETDIJ:  cpu time      0.0073: real time      0.0073
    TRIAL :  cpu time      0.7403: real time      0.7393
    CORREC:  cpu time      0.2009: real time      0.2006
    CHARGE:  cpu time      0.0387: real time      0.0387
    --------------------------------------------
      LOOP:  cpu time      1.0318: real time      1.0306

 eigenvalue-minimisations  :     0
 total energy-change (2. order) :-0.6336436E-03  (-0.3600578E-03)
 number of electron      82.9999948 magnetization       0.5937500
 augmentation part        1.3836486 magnetization       0.1389421

 Free energy of the ion-electron system (eV)
  ---------------------------------------------------
  alpha Z        PSCENC =       226.04517191
  Ewald energy   TEWEN  =     -4531.05705461
  -Hartree energ DENC   =     -1354.61742302
  -exchange      EXHF   =         0.00000000
  -V(xc)+E(xc)   XCENC  =        46.42625588
  PAW double counting   =      6216.83784890    -6032.69353731
  entropy T*S    EENTRO =        -0.00000280
  eigenvalues    EBANDS =      -352.86157597
  atomic energy  EATOM  =      5751.96140765
  ---------------------------------------------------
  free energy    TOTEN  =       -29.95890935 eV

  energy without entropy =      -29.95890655  energy(sigma->0) =      -29.95890795


--------------------------------------------------------------------------------------------------------




--------------------------------------- Iteration      1(  15)  ---------------------------------------


    POTLOK:  cpu time      0.0447: real time      0.0446
    SETDIJ:  cpu time      0.0077: real time      0.0077
[...]
     34       0.0689      1.00000
     35       0.1783      1.00000
     36       0.2211      1.00000
     37       0.3044      1.00000
     38       0.3629      1.00000
     39       0.4855      1.00000
     40       0.7100      1.00000
     41       1.2095      1.00000
     42       1.5090      1.00000
     43       4.2830      0.00000
     44       7.1233      0.00000
     45       8.1238      0.00000
     46       8.2244      0.00000
     47       8.2986      0.00000
     48       8.3737      0.00000
     49       8.6870      0.00000
     50       8.9508      0.00000
     51       9.2459      0.00000
     52       9.2586      0.00000
     53       9.3119      0.00000
     54       9.3893      0.00000
     55       9.6476      0.00000
     56      10.2235      0.00000

 k-point    64 :      -0.2500   -0.2500   -0.2500
  band No.  band energies     occupation 
      1     -17.9329      1.00000
      2     -17.9159      1.00000
      3     -12.6684      1.00000
      4     -12.3057      1.00000
      5     -12.2089      1.00000
      6     -12.2088      1.00000
      7     -12.1587      1.00000
      8     -12.1586      1.00000
      9      -5.0249      1.00000
     10      -5.0249      1.00000
     11      -4.9362      1.00000
     12      -4.8676      1.00000
     13      -4.8675      1.00000
     14      -4.7955      1.00000
     15      -4.6090      1.00000
     16      -4.6089      1.00000
     17      -4.1199      1.00000
     18      -4.0939      1.00000
     19      -4.0939      1.00000
     20      -3.9480      1.00000
     21      -2.5081      1.00000
     22      -2.5079      1.00000
     23      -2.1857      1.00000
     24      -1.8173      1.00000
     25      -1.8027      1.00000
     26      -1.8027      1.00000
     27      -0.9855      1.00000
     28      -0.9854      1.00000
     29      -0.1688      1.00000
     30      -0.0685      1.00000
     31      -0.0685      1.00000
     32       0.0502      1.00000
     33       0.1168      1.00000
     34       0.1332      1.00000
     35       0.1333      1.00000
     36       0.4601      1.00000
     37       0.4602      1.00000
     38       0.4949      1.00000
     39       0.4950      1.00000
     40       0.5639      1.00000
     41       1.8174      0.00000
     42       1.8175      0.00000
     43       3.3462      0.00000
     44       7.0578      0.00000
     45       7.6050      0.00000
     46       7.6397      0.00000
     47       7.6397      0.00000
     48       7.8599      0.00000
     49       7.8599      0.00000
     50       8.6556      0.00000
     51       8.9430      0.00000
     52       8.9430      0.00000
     53       8.9934      0.00000
     54       9.3035      0.00000
     55       9.9361      0.00000
     56       9.9449      0.00000


--------------------------------------------------------------------------------------------------------


 soft charge-density along one line, spin component           1
         0         1         2         3         4         5         6         7         8         9
 total charge-density along one line
 
 soft charge-density along one line, spin component           2
         0         1         2         3         4         5         6         7         8         9
 total charge-density along one line
 
 pseudopotential strength for first ion, spin component:           1
-14.732  -0.000   0.000  -0.000   0.000 -14.717  -0.000   0.000
 -0.000 -14.732  -0.000  -0.000   0.000  -0.000 -14.717  -0.000
  0.000  -0.000 -14.742  -0.000   0.000   0.000  -0.000 -14.727
 -0.000  -0.000  -0.000 -14.732  -0.000  -0.000  -0.000  -0.000
  0.000   0.000   0.000  -0.000 -14.742   0.000   0.000   0.000
-14.717  -0.000   0.000  -0.000   0.000 -14.685  -0.000   0.000
 -0.000 -14.717  -0.000  -0.000   0.000  -0.000 -14.685  -0.000
  0.000  -0.000 -14.727  -0.000   0.000   0.000  -0.000 -14.695
 -0.000  -0.000  -0.000 -14.717  -0.000  -0.000  -0.000  -0.000
  0.000   0.000   0.000  -0.000 -14.727   0.000   0.000   0.000
  0.000   0.000  -0.000   0.000   0.000   0.000   0.000  -0.000
  0.000   0.000  -0.000   0.000   0.000   0.000   0.000  -0.000
 -0.000  -0.000  -0.000   0.000  -0.000  -0.000  -0.000  -0.000
  0.000   0.000  -0.000  -0.000   0.000   0.000   0.000  -0.000
  0.000   0.000   0.000  -0.000  -0.000   0.000   0.000   0.000
 -0.000  -0.000  -0.000   0.000  -0.000  -0.000  -0.000  -0.000
  0.000   0.000  -0.000  -0.000   0.000   0.000   0.000  -0.000
  0.000   0.000   0.000  -0.000  -0.000   0.000   0.000   0.000
 pseudopotential strength for first ion, spin component:           2
-14.720  -0.000   0.000  -0.000  -0.000 -14.706  -0.000   0.000
 -0.000 -14.720  -0.000  -0.000   0.000  -0.000 -14.706  -0.000
  0.000  -0.000 -14.713  -0.000   0.000   0.000  -0.000 -14.699
 -0.000  -0.000  -0.000 -14.720  -0.000  -0.000  -0.000  -0.000
 -0.000   0.000   0.000  -0.000 -14.713  -0.000   0.000   0.000
-14.706  -0.000   0.000  -0.000  -0.000 -14.675  -0.000   0.000
 -0.000 -14.706  -0.000  -0.000   0.000  -0.000 -14.675  -0.000
  0.000  -0.000 -14.699  -0.000   0.000   0.000  -0.000 -14.668
 -0.000  -0.000  -0.000 -14.706  -0.000  -0.000  -0.000  -0.000
 -0.000   0.000   0.000  -0.000 -14.699  -0.000   0.000   0.000
  0.000   0.000   0.000   0.000   0.000   0.000   0.000   0.000
  0.000   0.000   0.000   0.000   0.000   0.000   0.000   0.000
 -0.000  -0.000  -0.000  -0.000  -0.000  -0.000  -0.000  -0.000
 -0.000   0.000  -0.000  -0.000   0.000   0.000   0.000  -0.000
  0.000  -0.000   0.000  -0.000  -0.000   0.000   0.000   0.000
 -0.000  -0.000  -0.000   0.000  -0.000  -0.000  -0.000  -0.000
  0.000   0.000  -0.000  -0.000   0.000   0.000   0.000  -0.000
  0.000   0.000   0.000  -0.000  -0.000   0.000   0.000   0.000
 total augmentation occupancy for first ion, spin component:           1
  3.739   0.000   0.000   0.000  -0.000  -1.483  -0.000  -0.000  -0.000   0.000   0.000   0.000   0.000   0.000  -0.000  -0.000
  0.000   3.739  -0.000   0.000   0.000  -0.000  -1.483   0.000  -0.000  -0.000  -0.000   0.000   0.000  -0.000   0.000  -0.000
  0.000  -0.000   8.042  -0.000   0.001  -0.000   0.000  -5.656   0.000  -0.001  -0.000   0.000  -0.000   0.000  -0.000  -0.000
  0.000   0.000  -0.000   3.739  -0.000  -0.000  -0.000   0.000  -1.483   0.000  -0.000   0.000  -0.000   0.000   0.000  -0.000
 -0.000   0.000   0.001  -0.000   8.041   0.000  -0.000  -0.001   0.000  -5.656  -0.000   0.000   0.000  -0.000  -0.000  -0.000
 -1.483  -0.000  -0.000  -0.000   0.000   1.232   0.000   0.000   0.000  -0.000  -0.000   0.000  -0.000  -0.000   0.000  -0.000
 -0.000  -1.483   0.000  -0.000  -0.000   0.000   1.232  -0.000   0.000   0.000  -0.000  -0.000  -0.000   0.000  -0.000  -0.000
 -0.000   0.000  -5.656   0.000  -0.001   0.000  -0.000   5.257  -0.000   0.001   0.000  -0.000   0.000   0.000   0.000   0.000
 -0.000  -0.000   0.000  -1.483   0.000   0.000   0.000  -0.000   1.232  -0.000  -0.000   0.000   0.000   0.000  -0.000   0.000
  0.000  -0.000  -0.001   0.000  -5.656  -0.000   0.000   0.001  -0.000   5.257   0.000  -0.000  -0.000   0.000   0.000  -0.000
  0.000  -0.000  -0.000  -0.000  -0.000  -0.000  -0.000   0.000  -0.000   0.000   4.383  -1.866   0.000   0.000  -0.000  -0.000
  0.000   0.000   0.000   0.000   0.000   0.000  -0.000  -0.000   0.000  -0.000  -1.866   0.914  -0.000  -0.000   0.000   0.000
  0.000   0.000  -0.000  -0.000   0.000  -0.000  -0.000   0.000   0.000  -0.000   0.000  -0.000   0.284  -0.000  -0.000  -0.073
  0.000  -0.000   0.000   0.000  -0.000  -0.000   0.000   0.000   0.000   0.000   0.000  -0.000  -0.000   0.284  -0.000   0.000
 -0.000   0.000  -0.000   0.000  -0.000   0.000  -0.000   0.000  -0.000   0.000  -0.000   0.000  -0.000  -0.000   0.284   0.000
 -0.000  -0.000  -0.000  -0.000  -0.000  -0.000  -0.000   0.000   0.000  -0.000  -0.000   0.000  -0.073   0.000   0.000   0.021
 -0.000   0.000  -0.000   0.000  -0.000   0.000   0.000   0.000  -0.000   0.000  -0.000   0.000   0.000  -0.073   0.000  -0.000
  0.000  -0.000   0.000  -0.000  -0.000  -0.000   0.000  -0.000  -0.000   0.000  -0.000   0.000   0.000   0.000  -0.073  -0.000
 total augmentation occupancy for first ion, spin component:           2
  0.017   0.000  -0.000   0.000  -0.000  -0.009  -0.000   0.000  -0.000   0.000   0.000   0.000   0.000  -0.000   0.000  -0.000
  0.000   0.017   0.000   0.000  -0.000  -0.000  -0.009  -0.000   0.000   0.000   0.000   0.000  -0.000  -0.000  -0.000   0.000
 -0.000   0.000   0.881   0.000   0.001   0.000  -0.000  -0.732   0.000  -0.001   0.000  -0.000   0.000  -0.000  -0.000  -0.000
  0.000   0.000   0.000   0.017   0.000  -0.000   0.000   0.000  -0.009   0.000   0.000   0.000   0.000   0.000  -0.000  -0.000
 -0.000  -0.000   0.001   0.000   0.881   0.000   0.000  -0.001   0.000  -0.731   0.000  -0.000   0.000  -0.000   0.000   0.000
 -0.009  -0.000   0.000  -0.000   0.000   0.002   0.000  -0.000   0.000  -0.000  -0.000   0.000  -0.000   0.000  -0.000   0.000
 -0.000  -0.009  -0.000   0.000   0.000   0.000   0.002  -0.000  -0.000   0.000  -0.000   0.000   0.000   0.000   0.000  -0.000
  0.000  -0.000  -0.732   0.000  -0.001  -0.000  -0.000   0.604  -0.000   0.001  -0.000   0.000  -0.000   0.000   0.000   0.000
 -0.000   0.000   0.000  -0.009   0.000   0.000  -0.000  -0.000   0.002  -0.000  -0.000   0.000  -0.000  -0.000   0.000   0.000
  0.000   0.000  -0.001   0.000  -0.731  -0.000   0.000   0.001  -0.000   0.604  -0.000   0.000  -0.000   0.000  -0.000  -0.000
  0.000   0.000   0.000   0.000   0.000  -0.000  -0.000  -0.000  -0.000  -0.000  -0.007  -0.001   0.000  -0.000  -0.000   0.000
  0.000   0.000  -0.000   0.000  -0.000   0.000   0.000   0.000   0.000   0.000  -0.001  -0.001  -0.000   0.000   0.000  -0.000
  0.000  -0.000   0.000   0.000   0.000  -0.000   0.000  -0.000  -0.000  -0.000   0.000  -0.000   0.003  -0.000  -0.000  -0.001
 -0.000  -0.000  -0.000   0.000  -0.000   0.000   0.000   0.000  -0.000   0.000  -0.000   0.000  -0.000   0.003  -0.000   0.000
  0.000  -0.000  -0.000  -0.000   0.000  -0.000   0.000   0.000   0.000  -0.000  -0.000   0.000  -0.000  -0.000   0.003   0.000
 -0.000   0.000  -0.000  -0.000   0.000   0.000  -0.000   0.000   0.000  -0.000   0.000  -0.000  -0.001   0.000   0.000   0.000
 -0.000   0.000  -0.000  -0.000  -0.000   0.000  -0.000  -0.000   0.000   0.000  -0.000   0.000   0.000  -0.001   0.000  -0.000
 -0.000   0.000   0.000  -0.000  -0.000   0.000  -0.000  -0.000   0.000   0.000  -0.000   0.000   0.000   0.000  -0.001  -0.000


------------------------ aborting loop because EDIFF is reached ----------------------------------------





 total charge

# of ion       s       p       d       f       tot
--------------------------------------------------
    1        0.586   0.326   9.427   0.000  10.339
    2        0.287   0.267   9.159   0.000   9.714
    3        1.954   5.303   0.038   0.007   7.302
    4        1.954   5.303   0.038   0.007   7.302
    5        1.603   3.499   0.000   0.000   5.102
    6        1.603   3.499   0.000   0.000   5.102
    7        1.603   3.499   0.000   0.000   5.102
    8        1.603   3.499   0.000   0.000   5.102
    9        1.603   3.499   0.000   0.000   5.102
   10        1.603   3.499   0.000   0.000   5.102
--------------------------------------------------
tot         14.399  32.194  18.662   0.014  65.269



 magnetization (x)

# of ion       s       p       d       f       tot
--------------------------------------------------
    1       -0.006   0.004   0.046   0.000   0.044
    2       -0.002   0.001   0.171   0.000   0.170
    3       -0.000  -0.000  -0.000  -0.000  -0.000
    4       -0.000  -0.000  -0.000  -0.000  -0.000
    5        0.002   0.051   0.000   0.000   0.053
    6        0.002   0.051   0.000   0.000   0.053
    7        0.002   0.052   0.000   0.000   0.053
    8        0.002   0.052   0.000   0.000   0.053
    9        0.002   0.051   0.000   0.000   0.053
   10        0.002   0.051   0.000   0.000   0.053
--------------------------------------------------
tot          0.000   0.314   0.216  -0.000   0.530
 
    FORLOC:  cpu time      0.0051: real time      0.0061
    FORNL :  cpu time      0.3118: real time      0.3115
    STRESS:  cpu time      4.8496: real time      4.8434
    FORCOR:  cpu time      0.0424: real time      0.0423
    OFIELD:  cpu time      0.0004: real time      0.0004

  FORCE on cell =-STRESS in cart. coord.  units (eV):
  Direction    XX          YY          ZZ          XY          YZ          ZX
  --------------------------------------------------------------------------------------
  Alpha Z   226.04517   226.04517   226.04517
  Ewald   -1510.35505 -1510.35505 -1510.35505     0.00000     0.00000     0.00000
  Hartree   451.58155   451.59263   451.60266    -0.00017    -0.00023    -0.00030
  E(xc)    -351.99537  -351.99565  -351.99572     0.00004     0.00004     0.00004
  Local    -577.38505  -577.40931  -577.42621     0.00091     0.00142     0.00205
  n-local   577.11865   577.12023   577.12244     0.00009     0.00001    -0.00011
  augment   -37.58484   -37.58257   -37.58270    -0.00008    -0.00003     0.00002
  Kinetic  1226.92472  1226.93941  1226.93283    -0.00198    -0.00259    -0.00320
  Fock        0.00000     0.00000     0.00000     0.00000     0.00000     0.00000
  -------------------------------------------------------------------------------------
  Total       4.34977     4.35487     4.34342    -0.00119    -0.00137    -0.00150
  in kB      25.22586    25.25540    25.18904    -0.00692    -0.00794    -0.00868
  external pressure =       25.22 kB  Pullay stress =        0.00 kB


 VOLUME and BASIS-vectors are now :
 -----------------------------------------------------------------------------
  energy-cutoff  :      350.00
  volume of cell :      276.27
      direct lattice vectors                 reciprocal lattice vectors
     0.000000000  5.169323800  5.169323800    -0.096724450  0.096724450  0.096724450
     5.169323800  0.000000000  5.169323800     0.096724450 -0.096724450  0.096724450
     5.169323800  5.169323800  0.000000000     0.096724450  0.096724450 -0.096724450

  length of vectors
     7.310527826  7.310527826  7.310527826     0.167531661  0.167531661  0.167531661


 FORCES acting on ions:
    Electron-Ion                     Ewald-Force                    Non-Local-Force
 -----------------------------------------------------------------------------------------------
   0.320E-05 -.526E-05 0.504E-05   -.279E-13 0.222E-15 -.284E-13   0.521E-05 -.640E-06 0.458E-06
   -.153E-04 0.182E-04 -.131E-04   -.111E-14 -.666E-15 0.000E+00   0.158E-04 -.686E-05 0.662E-05
   0.361E-05 0.825E-05 0.453E-05   0.916E-14 0.146E-13 0.117E-13   -.901E-06 -.561E-06 0.225E-05
   -.126E-05 -.105E-04 -.817E-07   -.421E-14 -.543E-14 -.237E-13   -.215E-05 -.936E-06 -.454E-05
   0.570E+01 -.520E-05 -.627E-04   -.551E+01 0.711E-14 0.109E-13   -.209E+00 0.765E-04 0.126E-03
   -.570E+01 0.150E-04 0.542E-04   0.551E+01 -.985E-14 -.622E-14   0.209E+00 -.809E-04 -.124E-03
   -.179E-04 0.570E+01 -.163E-04   0.147E-14 -.551E+01 -.511E-14   0.780E-04 -.210E+00 0.910E-04
   0.293E-04 -.570E+01 0.403E-04   -.507E-14 0.551E+01 0.000E+00   -.848E-04 0.210E+00 -.103E-03
   -.747E-04 -.438E-04 0.570E+01   0.153E-15 0.192E-14 -.551E+01   0.128E-03 0.105E-03 -.210E+00
   0.647E-04 0.412E-04 -.570E+01   -.321E-14 -.600E-14 0.551E+01   -.130E-03 -.104E-03 0.210E+00
 -----------------------------------------------------------------------------------------------
   0.161E-04 0.409E-05 0.114E-04   -.439E-15 0.569E-14 -.622E-14   -.302E-05 -.116E-04 -.130E-04
 
 
 POSITION                                       TOTAL-FORCE (eV/Angst)
 -----------------------------------------------------------------------------------
      0.00000      0.00000      0.00000         0.000007     -0.000005      0.000006
      5.16932      5.16932      5.16932        -0.000001      0.000013     -0.000007
      2.58466      2.58466      2.58466         0.000001      0.000008      0.000006
      7.75399      7.75399      7.75399        -0.000004     -0.000010     -0.000003
      2.61811      5.16932      5.16932        -0.014865      0.000072      0.000062
      7.72054      5.16932      5.16932         0.014875     -0.000065     -0.000069
      5.16932      2.61811      5.16932         0.000059     -0.015157      0.000075
      5.16932      7.72054      5.16932        -0.000056      0.015144     -0.000062
      5.16932      5.16932      2.61811         0.000051      0.000062     -0.014967
      5.16932      5.16932      7.72054        -0.000066     -0.000061      0.014959
 -----------------------------------------------------------------------------------
    total drift:                                0.000013     -0.000008     -0.000002


--------------------------------------------------------------------------------------------------------



  FREE ENERGIE OF THE ION-ELECTRON SYSTEM (eV)
  ---------------------------------------------------
  free  energy   TOTEN  =       -29.95984578 eV

  energy  without entropy=      -29.95984172  energy(sigma->0) =      -29.95984375
 


--------------------------------------------------------------------------------------------------------


    POTLOK:  cpu time      0.0547: real time      0.0547


--------------------------------------------------------------------------------------------------------


     LOOP+:  cpu time     70.8592: real time     70.9709
    4ORBIT:  cpu time      0.0000: real time      0.0000



 total charge

# of ion       s       p       d       f       tot
--------------------------------------------------
    1        0.586   0.326   9.427   0.000  10.339
    2        0.287   0.267   9.159   0.000   9.714
    3        1.954   5.303   0.038   0.007   7.302
    4        1.954   5.303   0.038   0.007   7.302
    5        1.603   3.499   0.000   0.000   5.102
    6        1.603   3.499   0.000   0.000   5.102
    7        1.603   3.499   0.000   0.000   5.102
    8        1.603   3.499   0.000   0.000   5.102
    9        1.603   3.499   0.000   0.000   5.102
   10        1.603   3.499   0.000   0.000   5.102
--------------------------------------------------
tot         14.399  32.194  18.662   0.014  65.269



 magnetization (x)

# of ion       s       p       d       f       tot
--------------------------------------------------
    1       -0.006   0.004   0.046   0.000   0.044
    2       -0.002   0.001   0.171   0.000   0.170
    3       -0.000  -0.000  -0.000  -0.000  -0.000
    4       -0.000  -0.000  -0.000  -0.000  -0.000
    5        0.002   0.051   0.000   0.000   0.053
    6        0.002   0.051   0.000   0.000   0.053
    7        0.002   0.052   0.000   0.000   0.053
    8        0.002   0.052   0.000   0.000   0.053
    9        0.002   0.051   0.000   0.000   0.053
   10        0.002   0.051   0.000   0.000   0.053
--------------------------------------------------
tot          0.000   0.314   0.216  -0.000   0.530
 

 total amount of memory used by VASP MPI-rank0   496420. kBytes
=======================================================================

   base      :      30000. kBytes
   nonl-proj :     271193. kBytes
   fftplans  :       1814. kBytes
   grid      :       8356. kBytes
   one-center:        983. kBytes
   wavefun   :     184074. kBytes
 
  
  
 General timing and accounting informations for this job:
 ========================================================
  
                  Total CPU time used (sec):       75.208
                            User time (sec):       73.864
                          System time (sec):        1.344
                         Elapsed time (sec):       76.926
  
                   Maximum memory used (kb):      622956.
                   Average memory used (kb):          N/A
  
                          Minor page faults:       351544
                          Major page faults:           96
                 Voluntary context switches:         6687
