PROCAR new format
# of k-points:   64         # of bands:   48         # of ions:   10

 k-point     1 :    0.00000000 0.00000000 0.00000000     weight = 0.01562500

band     1 # energy  -17.93786090 # occ.  1.00000000
 
ion      s      p      d      f    tot
    1  0.000  0.000  0.000  0.000  0.000
    2  0.000  0.000  0.000  0.000  0.000
    3  0.480  0.000  0.000  0.000  0.480
    4  0.480  0.000  0.000  0.000  0.480
    5  0.000  0.000  0.000  0.000  0.000
    6  0.000  0.000  0.000  0.000  0.000
    7  0.000  0.000  0.000  0.000  0.000
    8  0.000  0.000  0.000  0.000  0.000
    9  0.000  0.000  0.000  0.000  0.000
   10  0.000  0.000  0.000  0.000  0.000
tot    0.962  0.000  0.000  0.000  0.962
 
band     2 # energy  -17.91255332 # occ.  1.00000000
 
ion      s      p      d      f    tot
    1  0.000  0.000  0.000  0.000  0.000
    2  0.000  0.000  0.000  0.000  0.000
    3  0.483  0.000  0.000  0.000  0.483
    4  0.483  0.000  0.000  0.000  0.483
    5  0.000  0.000  0.000  0.000  0.000
    6  0.000  0.000  0.000  0.000  0.000
    7  0.000  0.000  0.000  0.000  0.000
    8  0.000  0.000  0.000  0.000  0.000
    9  0.000  0.000  0.000  0.000  0.000
   10  0.000  0.000  0.000  0.000  0.000
tot    0.967  0.000  0.000  0.000  0.967
 
band     3 # energy  -12.72889446 # occ.  1.00000000
 
ion      s      p      d      f    tot
    1  0.018  0.000  0.000  0.000  0.018
    2  0.012  0.000  0.000  0.000  0.012
    3  0.003  0.000  0.000  0.000  0.003
    4  0.003  0.000  0.000  0.000  0.003
    5  0.128  0.000  0.000  0.000  0.128
    6  0.128  0.000  0.000  0.000  0.128
    7  0.111  0.000  0.000  0.000  0.111
    8  0.111  0.000  0.000  0.000  0.111
    9  0.128  0.000  0.000  0.000  0.128
   10  0.128  0.000  0.000  0.000  0.128
tot    0.769  0.000  0.000  0.000  0.769
 
band     4 # energy  -12.22684963 # occ.  1.00000000
 
ion      s      p      d      f    tot
    1  0.000  0.005  0.000  0.000  0.005
    2  0.000  0.005  0.000  0.000  0.005
    3  0.000  0.000  0.000  0.000  0.000
    4  0.000  0.000  0.000  0.000  0.000
    5  0.394  0.000  0.000  0.000  0.394
    6  0.394  0.000  0.000  0.000  0.394
    7  0.000  0.000  0.000  0.000  0.000
    8  0.000  0.000  0.000  0.000  0.000
    9  0.000  0.000  0.000  0.000  0.000
   10  0.000  0.000  0.000  0.000  0.000
tot    0.789  0.010  0.000  0.000  0.799
 
band     5 # energy  -12.22582516 # occ.  1.00000000
 
ion      s      p      d      f    tot
    1  0.000  0.005  0.000  0.000  0.005
    2  0.000  0.005  0.000  0.000  0.005
    3  0.000  0.000  0.000  0.000  0.000
    4  0.000  0.000  0.000  0.000  0.000
    5  0.000  0.000  0.000  0.000  0.000
    6  0.000  0.000  0.000  0.000  0.000
    7  0.000  0.000  0.000  0.000  0.000
    8  0.000  0.000  0.000  0.000  0.000
    9  0.394  0.000  0.000  0.000  0.394
   10  0.394  0.000  0.000  0.000  0.394
tot    0.789  0.010  0.000  0.000  0.799
 
band     6 # energy  -12.18479548 # occ.  1.00000000
 
ion      s      p      d      f    tot
    1  0.000  0.005  0.000  0.000  0.005
    2  0.000  0.005  0.000  0.000  0.005
    3  0.000  0.000  0.000  0.000  0.000
    4  0.000  0.000  0.000  0.000  0.000
    5  0.000  0.000  0.000  0.000  0.000
    6  0.000  0.000  0.000  0.000  0.000
    7  0.394  0.000  0.000  0.000  0.394
    8  0.394  0.000  0.000  0.000  0.394
    9  0.000  0.000  0.000  0.000  0.000
   10  0.000  0.000  0.000  0.000  0.000
tot    0.789  0.010  0.000  0.000  0.799
 
band     7 # energy  -12.16615933 # occ.  1.00000000
 
ion      s      p      d      f    tot
    1  0.000  0.000  0.018  0.000  0.018
    2  0.000  0.000  0.011  0.000  0.011
    3  0.000  0.000  0.000  0.000  0.000
    4  0.000  0.000  0.000  0.000  0.000
    5  0.198  0.000  0.000  0.000  0.198
    6  0.198  0.000  0.000  0.000  0.198
    7  0.000  0.000  0.000  0.000  0.000
    8  0.000  0.000  0.000  0.000  0.000
    9  0.194  0.000  0.000  0.000  0.195
   10  0.195  0.000  0.000  0.000  0.195
tot    0.786  0.000  0.029  0.000  0.815
 
band     8 # energy  -12.13782595 # occ.  1.00000000
 
ion      s      p      d      f    tot
    1  0.000  0.000  0.018  0.000  0.018
    2  0.000  0.000  0.011  0.000  0.011
    3  0.000  0.000  0.000  0.000  0.000
    4  0.000  0.000  0.000  0.000  0.000
    5  0.058  0.000  0.000  0.000  0.058
    6  0.058  0.000  0.000  0.000  0.058
    7  0.273  0.000  0.000  0.000  0.273
    8  0.273  0.000  0.000  0.000  0.273
    9  0.062  0.000  0.000  0.000  0.062
   10  0.062  0.000  0.000  0.000  0.062
tot    0.786  0.000  0.029  0.000  0.815
 
band     9 # energy   -5.08828476 # occ.  1.00000000
 
ion      s      p      d      f    tot
    1  0.000  0.000  0.053  0.000  0.053
    2  0.000  0.000  0.004  0.000  0.004
    3  0.000  0.352  0.000  0.000  0.352
    4  0.000  0.352  0.000  0.000  0.352
    5  0.000  0.009  0.000  0.000  0.009
    6  0.000  0.009  0.000  0.000  0.009
    7  0.000  0.000  0.000  0.000  0.000
    8  0.000  0.000  0.000  0.000  0.000
    9  0.000  0.009  0.000  0.000  0.009
   10  0.000  0.009  0.000  0.000  0.009
tot    0.000  0.739  0.057  0.000  0.797
 
band    10 # energy   -5.08533231 # occ.  1.00000000
 
ion      s      p      d      f    tot
    1  0.000  0.000  0.053  0.000  0.053
    2  0.000  0.000  0.004  0.000  0.004
    3  0.000  0.352  0.000  0.000  0.352
    4  0.000  0.352  0.000  0.000  0.352
    5  0.000  0.009  0.000  0.000  0.009
    6  0.000  0.009  0.000  0.000  0.009
    7  0.000  0.009  0.000  0.000  0.009
    8  0.000  0.009  0.000  0.000  0.009
    9  0.000  0.000  0.000  0.000  0.000
   10  0.000  0.000  0.000  0.000  0.000
tot    0.000  0.740  0.057  0.000  0.797
 
band    11 # energy   -5.08527451 # occ.  1.00000000
 
ion      s      p      d      f    tot
    1  0.000  0.000  0.053  0.000  0.053
    2  0.000  0.000  0.004  0.000  0.004
    3  0.000  0.352  0.000  0.000  0.352
    4  0.000  0.352  0.000  0.000  0.352
    5  0.000  0.000  0.000  0.000  0.000
    6  0.000  0.000  0.000  0.000  0.000
    7  0.000  0.009  0.000  0.000  0.009
    8  0.000  0.009  0.000  0.000  0.009
    9  0.000  0.009  0.000  0.000  0.009
   10  0.000  0.009  0.000  0.000  0.009
tot    0.000  0.740  0.057  0.000  0.797
 
band    12 # energy   -4.85975251 # occ.  1.00000000
 
ion      s      p      d      f    tot
    1  0.000  0.001  0.000  0.000  0.001
    2  0.000  0.001  0.000  0.000  0.001
    3  0.000  0.409  0.000  0.000  0.409
    4  0.000  0.409  0.000  0.000  0.409
    5  0.000  0.004  0.000  0.000  0.004
    6  0.000  0.004  0.000  0.000  0.004
    7  0.000  0.002  0.000  0.000  0.002
    8  0.000  0.002  0.000  0.000  0.002
    9  0.000  0.004  0.000  0.000  0.004
   10  0.000  0.004  0.000  0.000  0.004
tot    0.000  0.841  0.000  0.000  0.841
 
band    13 # energy   -4.85816582 # occ.  1.00000000
 
ion      s      p      d      f    tot
    1  0.000  0.001  0.000  0.000  0.001
    2  0.000  0.001  0.000  0.000  0.001
    3  0.000  0.409  0.000  0.000  0.409
    4  0.000  0.409  0.000  0.000  0.409
    5  0.000  0.004  0.000  0.000  0.004
    6  0.000  0.004  0.000  0.000  0.004
    7  0.000  0.004  0.000  0.000  0.004
    8  0.000  0.004  0.000  0.000  0.004
    9  0.000  0.002  0.000  0.000  0.002
   10  0.000  0.002  0.000  0.000  0.002
tot    0.000  0.841  0.000  0.000  0.841
 
band    14 # energy   -4.85813684 # occ.  1.00000000
 
ion      s      p      d      f    tot
    1  0.000  0.001  0.000  0.000  0.001
    2  0.000  0.001  0.000  0.000  0.001
    3  0.000  0.409  0.000  0.000  0.409
    4  0.000  0.409  0.000  0.000  0.409
    5  0.000  0.002  0.000  0.000  0.002
    6  0.000  0.002  0.000  0.000  0.002
    7  0.000  0.004  0.000  0.000  0.004
    8  0.000  0.004  0.000  0.000  0.004
    9  0.000  0.004  0.000  0.000  0.004
   10  0.000  0.004  0.000  0.000  0.004
tot    0.000  0.841  0.000  0.000  0.841
 
band    15 # energy   -4.66333168 # occ.  1.00000000
 
ion      s      p      d      f    tot
    1  0.000  0.000  0.702  0.000  0.702
    2  0.000  0.000  0.056  0.000  0.056
    3  0.000  0.000  0.000  0.000  0.000
    4  0.000  0.000  0.000  0.000  0.000
    5  0.003  0.031  0.000  0.000  0.033
    6  0.003  0.031  0.000  0.000  0.033
    7  0.000  0.000  0.000  0.000  0.000
    8  0.000  0.000  0.000  0.000  0.000
    9  0.003  0.030  0.000  0.000  0.033
   10  0.003  0.030  0.000  0.000  0.033
tot    0.010  0.122  0.758  0.000  0.889
 
band    16 # energy   -4.65020043 # occ.  1.00000000
 
ion      s      p      d      f    tot
    1  0.000  0.000  0.703  0.000  0.703
    2  0.000  0.000  0.055  0.000  0.055
    3  0.000  0.000  0.000  0.000  0.000
    4  0.000  0.000  0.000  0.000  0.000
    5  0.001  0.011  0.000  0.000  0.012
    6  0.001  0.011  0.000  0.000  0.012
    7  0.003  0.038  0.000  0.000  0.042
    8  0.003  0.038  0.000  0.000  0.042
    9  0.001  0.011  0.000  0.000  0.012
   10  0.001  0.011  0.000  0.000  0.012
tot    0.010  0.121  0.758  0.000  0.890
 
band    17 # energy   -4.22276413 # occ.  1.00000000
 
ion      s      p      d      f    tot
    1  0.185  0.000  0.000  0.000  0.185
    2  0.071  0.000  0.000  0.000  0.071
    3  0.000  0.000  0.000  0.000  0.000
    4  0.000  0.000  0.000  0.000  0.000
    5  0.000  0.058  0.000  0.000  0.059
    6  0.000  0.058  0.000  0.000  0.059
    7  0.001  0.061  0.000  0.000  0.062
    8  0.001  0.061  0.000  0.000  0.062
    9  0.000  0.058  0.000  0.000  0.059
   10  0.000  0.058  0.000  0.000  0.059
tot    0.259  0.355  0.000  0.000  0.615
 
band    18 # energy   -4.08536438 # occ.  1.00000000
 
ion      s      p      d      f    tot
    1  0.000  0.000  0.836  0.000  0.836
    2  0.000  0.000  0.000  0.000  0.000
    3  0.000  0.042  0.000  0.000  0.042
    4  0.000  0.042  0.000  0.000  0.042
    5  0.000  0.002  0.000  0.000  0.002
    6  0.000  0.002  0.000  0.000  0.002
    7  0.000  0.000  0.000  0.000  0.000
    8  0.000  0.000  0.000  0.000  0.000
    9  0.000  0.002  0.000  0.000  0.002
   10  0.000  0.002  0.000  0.000  0.002
tot    0.000  0.093  0.836  0.000  0.930
 
band    19 # energy   -4.08116913 # occ.  1.00000000
 
ion      s      p      d      f    tot
    1  0.000  0.000  0.837  0.000  0.837
    2  0.000  0.000  0.000  0.000  0.000
    3  0.000  0.042  0.000  0.000  0.042
    4  0.000  0.042  0.000  0.000  0.042
    5  0.000  0.002  0.000  0.000  0.002
    6  0.000  0.002  0.000  0.000  0.002
    7  0.000  0.002  0.000  0.000  0.002
    8  0.000  0.002  0.000  0.000  0.002
    9  0.000  0.000  0.000  0.000  0.000
   10  0.000  0.000  0.000  0.000  0.000
tot    0.000  0.093  0.837  0.000  0.930
 
band    20 # energy   -4.08111294 # occ.  1.00000000
 
ion      s      p      d      f    tot
    1  0.000  0.000  0.837  0.000  0.837
    2  0.000  0.000  0.000  0.000  0.000
    3  0.000  0.042  0.000  0.000  0.042
    4  0.000  0.042  0.000  0.000  0.042
    5  0.000  0.000  0.000  0.000  0.000
    6  0.000  0.000  0.000  0.000  0.000
    7  0.000  0.002  0.000  0.000  0.002
    8  0.000  0.002  0.000  0.000  0.002
    9  0.000  0.002  0.000  0.000  0.002
   10  0.000  0.002  0.000  0.000  0.002
tot    0.000  0.093  0.837  0.000  0.930
 
band    21 # energy   -1.96266864 # occ.  1.00000000
 
ion      s      p      d      f    tot
    1  0.000  0.000  0.158  0.000  0.158
    2  0.000  0.000  0.639  0.000  0.639
    3  0.000  0.000  0.000  0.000  0.000
    4  0.000  0.000  0.000  0.000  0.000
    5  0.005  0.024  0.000  0.000  0.030
    6  0.005  0.024  0.000  0.000  0.030
    7  0.000  0.000  0.000  0.000  0.000
    8  0.000  0.000  0.000  0.000  0.000
    9  0.005  0.024  0.000  0.000  0.029
   10  0.005  0.024  0.000  0.000  0.029
tot    0.022  0.097  0.797  0.000  0.915
 
band    22 # energy   -1.94357278 # occ.  1.00000000
 
ion      s      p      d      f    tot
    1  0.000  0.000  0.157  0.000  0.157
    2  0.000  0.000  0.639  0.000  0.639
    3  0.000  0.000  0.000  0.000  0.000
    4  0.000  0.000  0.000  0.000  0.000
    5  0.002  0.008  0.000  0.000  0.010
    6  0.002  0.008  0.000  0.000  0.010
    7  0.007  0.033  0.000  0.000  0.040
    8  0.007  0.033  0.000  0.000  0.040
    9  0.002  0.008  0.000  0.000  0.010
   10  0.002  0.008  0.000  0.000  0.010
tot    0.022  0.097  0.796  0.000  0.915
 
band    23 # energy   -1.78511125 # occ.  1.00000000
 
ion      s      p      d      f    tot
    1  0.000  0.000  0.015  0.000  0.015
    2  0.000  0.000  0.684  0.000  0.684
    3  0.000  0.022  0.000  0.000  0.022
    4  0.000  0.022  0.000  0.000  0.022
    5  0.000  0.028  0.000  0.000  0.028
    6  0.000  0.028  0.000  0.000  0.028
    7  0.000  0.000  0.000  0.000  0.000
    8  0.000  0.000  0.000  0.000  0.000
    9  0.000  0.028  0.000  0.000  0.028
   10  0.000  0.028  0.000  0.000  0.028
tot    0.000  0.156  0.699  0.000  0.856
 
band    24 # energy   -1.77571709 # occ.  1.00000000
 
ion      s      p      d      f    tot
    1  0.000  0.000  0.015  0.000  0.015
    2  0.000  0.000  0.685  0.000  0.685
    3  0.000  0.022  0.000  0.000  0.022
    4  0.000  0.022  0.000  0.000  0.022
    5  0.000  0.028  0.000  0.000  0.028
    6  0.000  0.028  0.000  0.000  0.028
    7  0.000  0.028  0.000  0.000  0.028
    8  0.000  0.028  0.000  0.000  0.028
    9  0.000  0.000  0.000  0.000  0.000
   10  0.000  0.000  0.000  0.000  0.000
tot    0.000  0.155  0.701  0.000  0.856
 
band    25 # energy   -1.77555526 # occ.  1.00000000
 
ion      s      p      d      f    tot
    1  0.000  0.000  0.015  0.000  0.015
    2  0.000  0.000  0.685  0.000  0.685
    3  0.000  0.022  0.000  0.000  0.022
    4  0.000  0.022  0.000  0.000  0.022
    5  0.000  0.000  0.000  0.000  0.000
    6  0.000  0.000  0.000  0.000  0.000
    7  0.000  0.028  0.000  0.000  0.028
    8  0.000  0.028  0.000  0.000  0.028
    9  0.000  0.028  0.000  0.000  0.028
   10  0.000  0.028  0.000  0.000  0.028
tot    0.000  0.155  0.701  0.000  0.856
 
band    26 # energy   -1.75136081 # occ.  1.00000000
 
ion      s      p      d      f    tot
    1  0.000  0.041  0.000  0.000  0.041
    2  0.000  0.033  0.000  0.000  0.033
    3  0.000  0.023  0.000  0.000  0.023
    4  0.000  0.023  0.000  0.000  0.023
    5  0.000  0.207  0.000  0.000  0.207
    6  0.000  0.207  0.000  0.000  0.207
    7  0.000  0.026  0.000  0.000  0.026
    8  0.000  0.026  0.000  0.000  0.026
    9  0.000  0.027  0.000  0.000  0.027
   10  0.000  0.027  0.000  0.000  0.027
tot    0.000  0.641  0.000  0.000  0.641
 
band    27 # energy   -1.75083169 # occ.  1.00000000
 
ion      s      p      d      f    tot
    1  0.000  0.041  0.000  0.000  0.041
    2  0.000  0.033  0.000  0.000  0.033
    3  0.000  0.023  0.000  0.000  0.023
    4  0.000  0.023  0.000  0.000  0.023
    5  0.000  0.027  0.000  0.000  0.027
    6  0.000  0.027  0.000  0.000  0.027
    7  0.000  0.026  0.000  0.000  0.026
    8  0.000  0.026  0.000  0.000  0.026
    9  0.000  0.207  0.000  0.000  0.207
   10  0.000  0.207  0.000  0.000  0.207
tot    0.000  0.641  0.000  0.000  0.641
 
band    28 # energy   -1.72603554 # occ.  1.00000000
 
ion      s      p      d      f    tot
    1  0.000  0.041  0.000  0.000  0.041
    2  0.000  0.033  0.000  0.000  0.033
    3  0.000  0.024  0.000  0.000  0.024
    4  0.000  0.024  0.000  0.000  0.024
    5  0.000  0.028  0.000  0.000  0.028
    6  0.000  0.028  0.000  0.000  0.028
    7  0.000  0.204  0.000  0.000  0.204
    8  0.000  0.204  0.000  0.000  0.204
    9  0.000  0.028  0.000  0.000  0.028
   10  0.000  0.028  0.000  0.000  0.028
tot    0.000  0.640  0.000  0.000  0.640
 
band    29 # energy    0.02250493 # occ.  1.00000000
 
ion      s      p      d      f    tot
    1  0.000  0.000  0.000  0.000  0.000
    2  0.000  0.000  0.000  0.000  0.000
    3  0.000  0.000  0.000  0.001  0.001
    4  0.000  0.000  0.000  0.001  0.001
    5  0.000  0.162  0.000  0.000  0.162
    6  0.000  0.162  0.000  0.000  0.162
    7  0.000  0.000  0.000  0.000  0.000
    8  0.000  0.000  0.000  0.000  0.000
    9  0.000  0.162  0.000  0.000  0.162
   10  0.000  0.162  0.000  0.000  0.162
tot    0.000  0.648  0.000  0.002  0.650
 
band    30 # energy    0.03743996 # occ.  1.00000000
 
ion      s      p      d      f    tot
    1  0.000  0.000  0.000  0.000  0.000
    2  0.000  0.000  0.000  0.000  0.000
    3  0.000  0.000  0.000  0.001  0.001
    4  0.000  0.000  0.000  0.001  0.001
    5  0.000  0.174  0.000  0.000  0.174
    6  0.000  0.174  0.000  0.000  0.174
    7  0.000  0.150  0.000  0.000  0.150
    8  0.000  0.150  0.000  0.000  0.150
    9  0.000  0.000  0.000  0.000  0.000
   10  0.000  0.000  0.000  0.000  0.000
tot    0.000  0.648  0.000  0.002  0.650
 
band    31 # energy    0.03788848 # occ.  1.00000000
 
ion      s      p      d      f    tot
    1  0.000  0.000  0.000  0.000  0.000
    2  0.000  0.000  0.000  0.000  0.000
    3  0.000  0.000  0.000  0.001  0.001
    4  0.000  0.000  0.000  0.001  0.001
    5  0.000  0.000  0.000  0.000  0.000
    6  0.000  0.000  0.000  0.000  0.000
    7  0.000  0.150  0.000  0.000  0.150
    8  0.000  0.150  0.000  0.000  0.150
    9  0.000  0.173  0.000  0.000  0.173
   10  0.000  0.173  0.000  0.000  0.173
tot    0.000  0.648  0.000  0.002  0.650
 
band    32 # energy    0.11443055 # occ.  1.00000000
 
ion      s      p      d      f    tot
    1  0.000  0.000  0.037  0.000  0.037
    2  0.000  0.000  0.248  0.000  0.248
    3  0.000  0.033  0.000  0.000  0.033
    4  0.000  0.033  0.000  0.000  0.033
    5  0.000  0.104  0.000  0.000  0.104
    6  0.000  0.104  0.000  0.000  0.104
    7  0.000  0.000  0.000  0.000  0.000
    8  0.000  0.000  0.000  0.000  0.000
    9  0.000  0.104  0.000  0.000  0.104
   10  0.000  0.104  0.000  0.000  0.104
tot    0.000  0.482  0.285  0.000  0.767
 
band    33 # energy    0.12779751 # occ.  1.00000000
 
ion      s      p      d      f    tot
    1  0.000  0.000  0.037  0.000  0.037
    2  0.000  0.000  0.247  0.000  0.247
    3  0.000  0.033  0.000  0.000  0.033
    4  0.000  0.033  0.000  0.000  0.033
    5  0.000  0.111  0.000  0.000  0.111
    6  0.000  0.111  0.000  0.000  0.111
    7  0.000  0.098  0.000  0.000  0.098
    8  0.000  0.098  0.000  0.000  0.098
    9  0.000  0.000  0.000  0.000  0.000
   10  0.000  0.000  0.000  0.000  0.000
tot    0.000  0.483  0.283  0.000  0.767
 
band    34 # energy    0.12813748 # occ.  1.00000000
 
ion      s      p      d      f    tot
    1  0.000  0.000  0.037  0.000  0.037
    2  0.000  0.000  0.247  0.000  0.247
    3  0.000  0.033  0.000  0.000  0.033
    4  0.000  0.033  0.000  0.000  0.033
    5  0.000  0.000  0.000  0.000  0.000
    6  0.000  0.000  0.000  0.000  0.000
    7  0.000  0.098  0.000  0.000  0.098
    8  0.000  0.098  0.000  0.000  0.098
    9  0.000  0.111  0.000  0.000  0.111
   10  0.000  0.111  0.000  0.000  0.111
tot    0.000  0.483  0.283  0.000  0.767
 
band    35 # energy    0.38448736 # occ.  1.00000000
 
ion      s      p      d      f    tot
    1  0.000  0.003  0.000  0.000  0.003
    2  0.000  0.003  0.000  0.000  0.003
    3  0.000  0.015  0.000  0.000  0.015
    4  0.000  0.015  0.000  0.000  0.015
    5  0.000  0.122  0.000  0.000  0.122
    6  0.000  0.122  0.000  0.000  0.122
    7  0.000  0.092  0.000  0.000  0.092
    8  0.000  0.092  0.000  0.000  0.092
    9  0.000  0.123  0.000  0.000  0.123
   10  0.000  0.123  0.000  0.000  0.123
tot    0.000  0.712  0.000  0.000  0.712
 
band    36 # energy    0.38583388 # occ.  1.00000000
 
ion      s      p      d      f    tot
    1  0.000  0.003  0.000  0.000  0.003
    2  0.000  0.003  0.000  0.000  0.003
    3  0.000  0.016  0.000  0.000  0.016
    4  0.000  0.016  0.000  0.000  0.016
    5  0.000  0.109  0.000  0.000  0.109
    6  0.000  0.109  0.000  0.000  0.109
    7  0.000  0.136  0.000  0.000  0.136
    8  0.000  0.136  0.000  0.000  0.136
    9  0.000  0.091  0.000  0.000  0.091
   10  0.000  0.091  0.000  0.000  0.091
tot    0.000  0.711  0.000  0.000  0.711
 
band    37 # energy    0.38589579 # occ.  1.00000000
 
ion      s      p      d      f    tot
    1  0.000  0.003  0.000  0.000  0.003
    2  0.000  0.003  0.000  0.000  0.003
    3  0.000  0.016  0.000  0.000  0.016
    4  0.000  0.016  0.000  0.000  0.016
    5  0.000  0.091  0.000  0.000  0.091
    6  0.000  0.091  0.000  0.000  0.091
    7  0.000  0.136  0.000  0.000  0.136
    8  0.000  0.136  0.000  0.000  0.136
    9  0.000  0.109  0.000  0.000  0.109
   10  0.000  0.109  0.000  0.000  0.109
tot    0.000  0.711  0.000  0.000  0.711
 
band    38 # energy    0.65337660 # occ.  1.00000000
 
ion      s      p      d      f    tot
    1  0.000  0.000  0.000  0.000  0.000
    2  0.000  0.000  0.000  0.000  0.000
    3  0.000  0.000  0.000  0.001  0.001
    4  0.000  0.000  0.000  0.001  0.001
    5  0.000  0.176  0.000  0.000  0.176
    6  0.000  0.176  0.000  0.000  0.176
    7  0.000  0.000  0.000  0.000  0.000
    8  0.000  0.000  0.000  0.000  0.000
    9  0.000  0.176  0.000  0.000  0.176
   10  0.000  0.176  0.000  0.000  0.176
tot    0.000  0.703  0.000  0.002  0.705
 
band    39 # energy    0.67219145 # occ.  1.00000000
 
ion      s      p      d      f    tot
    1  0.000  0.000  0.000  0.000  0.000
    2  0.000  0.000  0.000  0.000  0.000
    3  0.000  0.000  0.000  0.001  0.001
    4  0.000  0.000  0.000  0.001  0.001
    5  0.000  0.168  0.000  0.000  0.168
    6  0.000  0.168  0.000  0.000  0.168
    7  0.000  0.183  0.000  0.000  0.183
    8  0.000  0.183  0.000  0.000  0.183
    9  0.000  0.000  0.000  0.000  0.000
   10  0.000  0.000  0.000  0.000  0.000
tot    0.000  0.703  0.000  0.002  0.705
 
band    40 # energy    0.67265054 # occ.  1.00000000
 
ion      s      p      d      f    tot
    1  0.000  0.000  0.000  0.000  0.000
    2  0.000  0.000  0.000  0.000  0.000
    3  0.000  0.000  0.000  0.001  0.001
    4  0.000  0.000  0.000  0.001  0.001
    5  0.000  0.000  0.000  0.000  0.000
    6  0.000  0.000  0.000  0.000  0.000
    7  0.000  0.183  0.000  0.000  0.183
    8  0.000  0.183  0.000  0.000  0.183
    9  0.000  0.169  0.000  0.000  0.169
   10  0.000  0.169  0.000  0.000  0.169
tot    0.000  0.703  0.000  0.002  0.705
 
band    41 # energy    2.26242434 # occ.  0.00000000
 
ion      s      p      d      f    tot
    1  0.000  0.000  0.096  0.000  0.096
    2  0.000  0.000  0.269  0.000  0.269
    3  0.000  0.000  0.000  0.000  0.000
    4  0.000  0.000  0.000  0.000  0.000
    5  0.000  0.115  0.000  0.000  0.115
    6  0.000  0.115  0.000  0.000  0.115
    7  0.000  0.001  0.000  0.000  0.001
    8  0.000  0.001  0.000  0.000  0.001
    9  0.000  0.134  0.000  0.000  0.134
   10  0.000  0.134  0.000  0.000  0.134
tot    0.001  0.500  0.365  0.000  0.866
 
band    42 # energy    2.28800104 # occ.  0.00000000
 
ion      s      p      d      f    tot
    1  0.000  0.000  0.096  0.000  0.096
    2  0.000  0.000  0.269  0.000  0.269
    3  0.000  0.000  0.000  0.000  0.000
    4  0.000  0.000  0.000  0.000  0.000
    5  0.000  0.051  0.000  0.000  0.051
    6  0.000  0.051  0.000  0.000  0.051
    7  0.000  0.166  0.000  0.000  0.166
    8  0.000  0.166  0.000  0.000  0.166
    9  0.000  0.033  0.000  0.000  0.033
   10  0.000  0.033  0.000  0.000  0.033
tot    0.001  0.500  0.365  0.000  0.866
 
band    43 # energy    2.56035251 # occ.  0.00000000
 
ion      s      p      d      f    tot
    1  0.361  0.000  0.000  0.000  0.361
    2  0.175  0.000  0.000  0.000  0.175
    3  0.000  0.000  0.000  0.000  0.000
    4  0.000  0.000  0.000  0.000  0.000
    5  0.015  0.010  0.000  0.000  0.025
    6  0.015  0.010  0.000  0.000  0.025
    7  0.015  0.010  0.000  0.000  0.025
    8  0.015  0.010  0.000  0.000  0.025
    9  0.015  0.010  0.000  0.000  0.025
   10  0.015  0.010  0.000  0.000  0.025
tot    0.627  0.058  0.000  0.000  0.686
 
band    44 # energy    7.04768791 # occ.  0.00000000
 
ion      s      p      d      f    tot
    1  0.011  0.000  0.000  0.000  0.012
    2  0.001  0.000  0.000  0.000  0.001
    3  0.150  0.000  0.000  0.000  0.150
    4  0.150  0.000  0.000  0.000  0.150
    5  0.011  0.000  0.000  0.000  0.011
    6  0.011  0.000  0.000  0.000  0.011
    7  0.011  0.000  0.000  0.000  0.011
    8  0.010  0.000  0.000  0.000  0.010
    9  0.011  0.000  0.000  0.000  0.011
   10  0.011  0.000  0.000  0.000  0.011
tot    0.377  0.002  0.000  0.000  0.379
 
band    45 # energy    7.20340607 # occ.  0.00000000
 
ion      s      p      d      f    tot
    1  0.000  0.082  0.000  0.000  0.082
    2  0.000  0.051  0.000  0.000  0.051
    3  0.000  0.000  0.054  0.000  0.054
    4  0.000  0.000  0.054  0.000  0.054
    5  0.011  0.000  0.000  0.000  0.011
    6  0.011  0.000  0.000  0.000  0.011
    7  0.000  0.000  0.000  0.000  0.000
    8  0.000  0.000  0.000  0.000  0.000
    9  0.025  0.001  0.000  0.000  0.026
   10  0.025  0.001  0.000  0.000  0.026
tot    0.072  0.135  0.109  0.000  0.316
 
band    46 # energy    7.20633911 # occ.  0.00000000
 
ion      s      p      d      f    tot
    1  0.000  0.082  0.000  0.000  0.082
    2  0.000  0.051  0.000  0.000  0.051
    3  0.000  0.000  0.054  0.000  0.054
    4  0.000  0.000  0.054  0.000  0.054
    5  0.011  0.000  0.000  0.000  0.012
    6  0.011  0.000  0.000  0.000  0.012
    7  0.020  0.001  0.000  0.000  0.021
    8  0.020  0.001  0.000  0.000  0.021
    9  0.005  0.000  0.000  0.000  0.005
   10  0.005  0.000  0.000  0.000  0.005
tot    0.072  0.135  0.109  0.000  0.316
 
band    47 # energy    7.21491860 # occ.  0.00000000
 
ion      s      p      d      f    tot
    1  0.000  0.001  0.000  0.000  0.001
    2  0.000  0.000  0.000  0.000  0.000
    3  0.000  0.000  0.111  0.000  0.111
    4  0.000  0.000  0.111  0.000  0.111
    5  0.001  0.000  0.000  0.000  0.001
    6  0.003  0.000  0.000  0.000  0.003
    7  0.008  0.000  0.000  0.000  0.008
    8  0.005  0.000  0.000  0.000  0.005
    9  0.001  0.000  0.000  0.000  0.001
   10  0.002  0.000  0.000  0.000  0.002
tot    0.019  0.001  0.222  0.000  0.242
 
band    48 # energy    7.21854855 # occ.  0.00000000
 
ion      s      p      d      f    tot
    1  0.000  0.000  0.000  0.000  0.000
    2  0.000  0.000  0.000  0.000  0.000
    3  0.000  0.000  0.111  0.000  0.111
    4  0.000  0.000  0.111  0.000  0.111
    5  0.004  0.000  0.000  0.000  0.004
    6  0.004  0.000  0.000  0.000  0.004
    7  0.000  0.000  0.000  0.000  0.000
    8  0.000  0.000  0.000  0.000  0.000
    9  0.005  0.000  0.000  0.000  0.005
   10  0.005  0.000  0.000  0.000  0.005
tot    0.019  0.000  0.222  0.000  0.242
 

 k-point     2 :    0.25000000 0.00000000 0.00000000     weight = 0.01562500

band     1 # energy  -17.93284366 # occ.  1.00000000
 
ion      s      p      d      f    tot
    1  0.000  0.000  0.000  0.000  0.000
    2  0.000  0.000  0.000  0.000  0.000
    3  0.481  0.000  0.000  0.000  0.481
    4  0.481  0.000  0.000  0.000  0.481
    5  0.000  0.000  0.000  0.000  0.000
    6  0.000  0.000  0.000  0.000  0.000
    7  0.000  0.000  0.000  0.000  0.000
    8  0.000  0.000  0.000  0.000  0.000
    9  0.000  0.000  0.000  0.000  0.000
   10  0.000  0.000  0.000  0.000  0.000
tot    0.963  0.000  0.000  0.000  0.963
 
band     2 # energy  -17.91578315 # occ.  1.00000000
 
ion      s      p      d      f    tot
    1  0.000  0.000  0.000  0.000  0.000
    2  0.000  0.000  0.000  0.000  0.000
    3  0.483  0.000  0.000  0.000  0.483
    4  0.483  0.000  0.000  0.000  0.483
    5  0.000  0.000  0.000  0.000  0.000
    6  0.000  0.000  0.000  0.000  0.000
    7  0.000  0.000  0.000  0.000  0.000
    8  0.000  0.000  0.000  0.000  0.000
    9  0.000  0.000  0.000  0.000  0.000
   10  0.000  0.000  0.000  0.000  0.000
tot    0.966  0.000  0.000  0.000  0.966
 
band     3 # energy  -12.66916574 # occ.  1.00000000
 
ion      s      p      d      f    tot
    1  0.016  0.001  0.000  0.000  0.016
    2  0.010  0.001  0.000  0.000  0.011
    3  0.002  0.000  0.000  0.000  0.002
    4  0.002  0.000  0.000  0.000  0.002
    5  0.130  0.000  0.000  0.000  0.130
    6  0.130  0.000  0.000  0.000  0.130
    7  0.110  0.000  0.000  0.000  0.110
    8  0.110  0.000  0.000  0.000  0.110
    9  0.129  0.000  0.000  0.000  0.129
   10  0.129  0.000  0.000  0.000  0.129
tot    0.769  0.002  0.000  0.000  0.771
 
band     4 # energy  -12.30902652 # occ.  1.00000000
 
ion      s      p      d      f    tot
    1  0.003  0.004  0.000  0.000  0.007
    2  0.002  0.004  0.000  0.000  0.006
    3  0.000  0.000  0.000  0.000  0.000
    4  0.000  0.000  0.000  0.000  0.000
    5  0.159  0.000  0.000  0.000  0.160
    6  0.159  0.000  0.000  0.000  0.160
    7  0.073  0.000  0.000  0.000  0.073
    8  0.073  0.000  0.000  0.000  0.073
    9  0.156  0.000  0.000  0.000  0.156
   10  0.156  0.000  0.000  0.000  0.156
tot    0.783  0.009  0.000  0.000  0.792
 
band     5 # energy  -12.22273871 # occ.  1.00000000
 
ion      s      p      d      f    tot
    1  0.000  0.003  0.007  0.000  0.010
    2  0.000  0.005  0.000  0.000  0.005
    3  0.000  0.000  0.000  0.000  0.000
    4  0.000  0.000  0.000  0.000  0.000
    5  0.196  0.000  0.000  0.000  0.196
    6  0.196  0.000  0.000  0.000  0.196
    7  0.000  0.000  0.000  0.000  0.000
    8  0.000  0.000  0.000  0.000  0.000
    9  0.197  0.000  0.000  0.000  0.197
   10  0.197  0.000  0.000  0.000  0.197
tot    0.787  0.008  0.007  0.000  0.802
 
band     6 # energy  -12.19199422 # occ.  1.00000000
 
ion      s      p      d      f    tot
    1  0.000  0.003  0.007  0.000  0.010
    2  0.000  0.005  0.000  0.000  0.005
    3  0.000  0.000  0.000  0.000  0.000
    4  0.000  0.000  0.000  0.000  0.000
    5  0.037  0.000  0.000  0.000  0.038
    6  0.037  0.000  0.000  0.000  0.037
    7  0.316  0.000  0.000  0.000  0.316
    8  0.316  0.000  0.000  0.000  0.316
    9  0.040  0.000  0.000  0.000  0.040
   10  0.040  0.000  0.000  0.000  0.040
tot    0.786  0.008  0.007  0.000  0.801
 
band     7 # energy  -12.17256320 # occ.  1.00000000
 
ion      s      p      d      f    tot
    1  0.000  0.002  0.011  0.000  0.013
    2  0.000  0.000  0.011  0.000  0.011
    3  0.000  0.000  0.000  0.000  0.000