unknown system                          
           1
     0.000000    5.169324    5.169324
     5.169324    0.000000    5.169324
     5.169324    5.169324    0.000000
   Hg   Ag   Cs   Cl
     1     1     2     6
Direct configuration=     1
   0.00000000  0.00000000  0.00000000
   0.50000000  0.50000000  0.50000000
   0.25000000  0.25000000  0.25000000
   0.75000000  0.75000000  0.75000000
   0.74676506  0.25323494  0.25323494
   0.25323494  0.74676506  0.74676506
   0.25323494  0.74676506  0.25323494
   0.74676506  0.25323494  0.74676506
   0.25323494  0.25323494  0.74676506
   0.74676506  0.74676506  0.25323494
